 Gaussian 16, Revision B.01,
 Gaussian 16:  ES64L-G16RevB.01 20-Dec-2017

 -----------------------------------------------
 # opt=maxcyc=500 freq=noraman uB2PLYPD3/cc-pvtz
 -----------------------------------------------

 -------------------
 Title Card Required
 -------------------
 Symbolic Z-matrix:
 Charge =  0 Multiplicity = 2

 SCF Done:  E(UB2PLYPD3) =  -155.004566888     A.U. after   23 cycles
 E2(B2PLYPD3) =    -0.2015316947D+00 E(B2PLYPD3) =    -0.15520609858298D+03
 SCF Done:  E(UB2PLYPD3) =  -155.014420572     A.U. after   18 cycles
 E2(B2PLYPD3) =    -0.2009188879D+00 E(B2PLYPD3) =    -0.15521533945963D+03
 SCF Done:  E(UB2PLYPD3) =  -155.015115388     A.U. after   16 cycles
 E2(B2PLYPD3) =    -0.2009386216D+00 E(B2PLYPD3) =    -0.15521605400935D+03
 SCF Done:  E(UB2PLYPD3) =  -155.015093107     A.U. after   14 cycles
 E2(B2PLYPD3) =    -0.2009852527D+00 E(B2PLYPD3) =    -0.15521607835962D+03
 SCF Done:  E(UB2PLYPD3) =  -155.015095556     A.U. after   14 cycles
 E2(B2PLYPD3) =    -0.2009844489D+00 E(B2PLYPD3) =    -0.15521608000464D+03
 SCF Done:  E(UB2PLYPD3) =  -155.015094385     A.U. after   11 cycles
 E2(B2PLYPD3) =    -0.2009858740D+00 E(B2PLYPD3) =    -0.15521608025889D+03
 Optimization completed.
    -- Stationary point found.
 Normal termination of Gaussian 16 at Fri May 31 16:49:59 2019.

 ----------------------------------------------------------------------
 #N Geom=AllCheck Guess=TCheck SCRF=Check GenChk UB2PLYPD3(FC)/CC-pVTZ
 Freq
 ----------------------------------------------------------------------

 Structure from the checkpoint file:  "/localscratch/339542/Gau-57293.chk"
 -------------------
 Title Card Required
 -------------------
 Charge =  0 Multiplicity = 2

                         Standard orientation:
 ---------------------------------------------------------------------
 Center     Atomic      Atomic             Coordinates (Angstroms)
 Number     Number       Type             X           Y           Z
 ---------------------------------------------------------------------
      1          6           0        1.890696   -0.190984   -0.000048
      2          6           0        0.688476    0.330560    0.000014
      3          1           0        0.590972    1.418569    0.000031
      4          6           0       -0.561678   -0.426271    0.000040
      5          6           0       -1.764777    0.145378   -0.000006
      6          1           0       -0.471625   -1.504614    0.000106
      7          1           0       -2.668157   -0.445153    0.000022
      8          1           0       -1.875715    1.221283   -0.000072
      9          1           0        2.908219    0.157812   -0.000084
 ---------------------------------------------------------------------

 SCF Done:  E(UB2PLYPD3) =  -155.015094385     A.U. after    1 cycles
 E2(B2PLYPD3) =    -0.2009858763D+00 E(B2PLYPD3) =    -0.15521608026124D+03
 E2(B2PLYPD3) =    -0.2009858763D+00 E(B2PLYPD3) =    -0.15521608026124D+03

 The electronic state is 2-A.
 Alpha  occ. eigenvalues --  -10.64298 -10.62929 -10.62857 -10.61384  -0.93460
 Alpha  occ. eigenvalues --   -0.85533  -0.70069  -0.63515  -0.56310  -0.52392
 Alpha  occ. eigenvalues --   -0.48207  -0.43172  -0.38646  -0.31027  -0.28762
 Alpha virt. eigenvalues --    0.02298   0.09902   0.10672   0.11875   0.12432
 Alpha virt. eigenvalues --    0.15497   0.17238   0.23086   0.29217   0.30730
 Alpha virt. eigenvalues --    0.33543   0.33773   0.36607   0.37399   0.39046

  Beta  occ. eigenvalues --  -10.63260 -10.62620 -10.62166 -10.61615  -0.92658
  Beta  occ. eigenvalues --   -0.83856  -0.68324  -0.61899  -0.55344  -0.50960
  Beta  occ. eigenvalues --   -0.47579  -0.42597  -0.38567  -0.27872
  Beta virt. eigenvalues --   -0.00771   0.03309   0.10149   0.10847   0.12282
  Beta virt. eigenvalues --    0.12670   0.15750   0.17400   0.23525   0.30575
  Beta virt. eigenvalues --    0.32643   0.33937   0.34371   0.37154   0.37540

 Mulliken charges and spin densities:
               1          2
     1  C   -0.240381   1.141739
     2  C   -0.063119  -0.232173
     3  H    0.132068   0.073441
     4  C   -0.057194   0.133475
     5  C   -0.311137  -0.143884
     6  H    0.136581   0.000396
     7  H    0.128287   0.006707
     8  H    0.119931   0.006172
     9  H    0.154964   0.014128
 Sum of Mulliken charges =  -0.00000   1.00000

 Dipole moment (field-independent basis, Debye):
    X=             -0.0165    Y=              0.5837    Z=              0.0000  Tot=              0.5839
 Quadrupole moment (field-independent basis, Debye-Ang):
   XX=            -21.6529   YY=            -23.3591   ZZ=            -28.1619
   XY=              1.1729   XZ=             -0.0001   YZ=             -0.0002

  Exact polarizability:  79.486  -6.526  40.705  -0.001  -0.000  26.329
 Approx polarizability:  85.865 -11.175  46.715  -0.001  -0.000  33.051

                      1                      2                      3
                      A                      A                      A
 Frequencies --    171.8399               300.6324               514.6054
 Red. masses --      2.9571                 2.3463                 2.9213
 Frc consts  --      0.0514                 0.1249                 0.4558
 IR Inten    --      0.0002                 8.2073                 3.2772

                      4                      5                      6
                      A                      A                      A
 Frequencies --    570.9622               746.5399               800.5584
 Red. masses --      1.0876                 1.3079                 1.4251
 Frc consts  --      0.2089                 0.4295                 0.5381
 IR Inten    --     51.5228                11.5357                15.5424

                      7                      8                      9
                      A                      A                      A
 Frequencies --    873.6434               955.5013               956.5641
 Red. masses --      1.6927                 1.4526                 1.3636
 Frc consts  --      0.7612                 0.7814                 0.7352
 IR Inten    --      0.1384                 1.6000                43.3295

                     10                     11                     12
                      A                      A                      A
 Frequencies --   1043.6824              1186.4684              1262.2142
 Red. masses --      1.1052                 2.3097                 1.2060
 Frc consts  --      0.7093                 1.9157                 1.1320
 IR Inten    --     15.9999                 4.5045                 1.3715

                     13                     14                     15
                      A                      A                      A
 Frequencies --   1331.1492              1459.8013              1665.6042
 Red. masses --      1.2790                 1.2200                 4.9738
 Frc consts  --      1.3353                 1.5318                 8.1299
 IR Inten    --      1.1520                 2.0766                 9.2569

                     16                     17                     18
                      A                      A                      A
 Frequencies --   1780.0312              3055.0825              3161.7420
 Red. masses --      6.1804                 1.0819                 1.0596
 Frc consts  --     11.5378                 5.9498                 6.2411
 IR Inten    --      3.3818                 7.4892                 5.8420

                     19                     20                     21
                      A                      A                      A
 Frequencies --   3186.3582              3253.6134              3275.4841
 Red. masses --      1.0928                 1.1157                 1.1055
 Frc consts  --      6.5370                 6.9587                 6.9881
 IR Inten    --      4.4167                 9.8008                 1.2411

 - Thermochemistry -
 -------------------
 Temperature   298.150 Kelvin.  Pressure   1.00000 Atm.
 Atom     1 has atomic number  6 and mass  12.00000

 Molecular mass:    53.03913 amu.
 Principal axes and moments of inertia in atomic units:
                           1         2         3
     Eigenvalues --    36.42380 391.13683 427.56063
           X            0.99996   0.00879   0.00001
           Y           -0.00879   0.99996   0.00003
           Z           -0.00001  -0.00003   1.00000
 This molecule is an asymmetric top.
 Rotational symmetry number  1.
 Rotational temperatures (Kelvin)      2.37795     0.22144     0.20258
 Rotational constants (GHZ):          49.54840     4.61409     4.22102
 Zero-point vibrational energy     188723.3 (Joules/Mol)
                                   45.10596 (Kcal/Mol)
 Warning -- explicit consideration of   4 degrees of freedom as
           vibrations may cause significant error
 Vibrational temperatures:    247.24   432.54   740.40   821.49  1074.10
          (Kelvin)           1151.82  1256.98  1374.75  1376.28  1501.63
                             1707.06  1816.04  1915.23  2100.33  2396.43
                             2561.07  4395.58  4549.04  4584.46  4681.22
                             4712.69

 Zero-point correction=                           0.071881 (Hartree/Particle)
 Thermal correction to Energy=                    0.076531
 Thermal correction to Enthalpy=                  0.077475
 Thermal correction to Gibbs Free Energy=         0.044916
 Sum of electronic and zero-point Energies=           -155.144199
 Sum of electronic and thermal Energies=              -155.139549
 Sum of electronic and thermal Enthalpies=            -155.138605
 Sum of electronic and thermal Free Energies=         -155.171164

                     E (Thermal)             CV                S
                      KCal/Mol        Cal/Mol-Kelvin    Cal/Mol-Kelvin
 Total                   48.024             15.611             68.526
 Electronic               0.000              0.000              1.377
 Translational            0.889              2.981             37.828
 Rotational               0.889              2.981             23.325
 Vibrational             46.247              9.649              5.996
 Vibration     1          0.626              1.877              2.415
 Vibration     2          0.693              1.672              1.413
 Vibration     3          0.870              1.218              0.623
 Vibration     4          0.927              1.094              0.502

 Optimization completed.
    -- Stationary point found.
 Normal termination of Gaussian 16 at Fri May 31 16:57:09 2019.
