 Gaussian 16, Revision B.01,
 Gaussian 16:  ES64L-G16RevB.01 20-Dec-2017

 -----------------------------------------------
 # opt=maxcyc=500 freq=noraman uB2PLYPD3/cc-pvtz
 -----------------------------------------------

 -------------------
 Title Card Required
 -------------------
 Symbolic Z-matrix:
 Charge =  0 Multiplicity = 1

 SCF Done:  E(UB2PLYPD3) =  -155.683488180     A.U. after   11 cycles
 E2(B2PLYPD3) =    -0.2143547979D+00 E(B2PLYPD3) =    -0.15589784297822D+03
 SCF Done:  E(UB2PLYPD3) =  -155.689010683     A.U. after   10 cycles
 E2(B2PLYPD3) =    -0.2138562740D+00 E(B2PLYPD3) =    -0.15590286695690D+03
 SCF Done:  E(UB2PLYPD3) =  -155.689159315     A.U. after    9 cycles
 E2(B2PLYPD3) =    -0.2140939605D+00 E(B2PLYPD3) =    -0.15590325327523D+03
 SCF Done:  E(UB2PLYPD3) =  -155.689130550     A.U. after    7 cycles
 E2(B2PLYPD3) =    -0.2141427425D+00 E(B2PLYPD3) =    -0.15590327329203D+03
 Optimization completed.
    -- Stationary point found.
 Normal termination of Gaussian 16 at Fri May 31 16:36:05 2019.

 ----------------------------------------------------------------------
 #N Geom=AllCheck Guess=TCheck SCRF=Check GenChk UB2PLYPD3(FC)/CC-pVTZ
 Freq
 ----------------------------------------------------------------------

 Structure from the checkpoint file:  "/localscratch/339542/Gau-88861.chk"
 -------------------
 Title Card Required
 -------------------
 Charge =  0 Multiplicity = 1

                         Standard orientation:
 ---------------------------------------------------------------------
 Center     Atomic      Atomic             Coordinates (Angstroms)
 Number     Number       Type             X           Y           Z
 ---------------------------------------------------------------------
      1          6           0        1.839417    0.109787    0.000005
      2          6           0        0.605234   -0.401510    0.000039
      3          1           0        2.001313    1.179305   -0.000058
      4          1           0        2.714768   -0.521518    0.000037
      5          1           0        0.472405   -1.477491    0.000099
      6          6           0       -0.605234    0.401510   -0.000003
      7          6           0       -1.839417   -0.109787   -0.000037
      8          1           0       -0.472406    1.477491   -0.000000
      9          1           0       -2.714768    0.521518   -0.000062
     10          1           0       -2.001313   -1.179306   -0.000039
 ---------------------------------------------------------------------

 SCF Done:  E(UB2PLYPD3) =  -155.689130550     A.U. after    1 cycles
 E2(B2PLYPD3) =    -0.2141427428D+00 E(B2PLYPD3) =    -0.15590327329232D+03
 E2(B2PLYPD3) =    -0.2141427428D+00 E(B2PLYPD3) =    -0.15590327329232D+03

 The electronic state is 1-A.
 Alpha  occ. eigenvalues --  -10.62417 -10.62359 -10.61363 -10.61363  -0.92860
 Alpha  occ. eigenvalues --   -0.84771  -0.70052  -0.64006  -0.54457  -0.53835
 Alpha  occ. eigenvalues --   -0.46544  -0.45505  -0.41057  -0.37981  -0.27508
 Alpha virt. eigenvalues --    0.02354   0.10018   0.10261   0.11037   0.12345
 Alpha virt. eigenvalues --    0.15800   0.16115   0.18470   0.23900   0.28360
 Alpha virt. eigenvalues --    0.33983   0.34152   0.36454   0.37077   0.39251

  Beta  occ. eigenvalues --  -10.62417 -10.62359 -10.61363 -10.61363  -0.92860
  Beta  occ. eigenvalues --   -0.84771  -0.70052  -0.64006  -0.54457  -0.53835
  Beta  occ. eigenvalues --   -0.46544  -0.45505  -0.41057  -0.37981  -0.27508
  Beta virt. eigenvalues --    0.02354   0.10018   0.10261   0.11037   0.12345
  Beta virt. eigenvalues --    0.15800   0.16115   0.18470   0.23900   0.28360
  Beta virt. eigenvalues --    0.33983   0.34152   0.36454   0.37077   0.39251

 Mulliken charges and spin densities:
               1          2
     1  C   -0.311089  -0.000000
     2  C   -0.062849   0.000000
     3  H    0.120362  -0.000000
     4  H    0.126406   0.000000
     5  H    0.127169  -0.000000
     6  C   -0.062849  -0.000000
     7  C   -0.311089   0.000000
     8  H    0.127169   0.000000
     9  H    0.126406   0.000000
    10  H    0.120362  -0.000000
 Sum of Mulliken charges =  -0.00000   0.00000

 Dipole moment (field-independent basis, Debye):
    X=              0.0000    Y=              0.0000    Z=              0.0000  Tot=              0.0000
 Quadrupole moment (field-independent basis, Debye-Ang):
   XX=            -23.3055   YY=            -22.9822   ZZ=            -29.0257
   XY=              0.1015   XZ=              0.0001   YZ=             -0.0002

  Exact polarizability:  81.535   5.780  42.900   0.001  -0.000  26.793
 Approx polarizability:  92.167  10.673  49.376   0.000  -0.000  34.452

                      1                      2                      3
                      A                      A                      A
 Frequencies --    172.6950               296.3043               518.4647
 Red. masses --      2.6406                 2.1576                 2.6670
 Frc consts  --      0.0464                 0.1116                 0.4224
 IR Inten    --      0.4361                 2.7212                 0.0000

                      4                      5                      6
                      A                      A                      A
 Frequencies --    543.0742               784.6257               906.2467
 Red. masses --      1.0756                 1.6690                 1.8126
 Frc consts  --      0.1869                 0.6054                 0.8771
 IR Inten    --     11.6595                 0.0000                 0.0000

                      7                      8                      9
                      A                      A                      A
 Frequencies --    942.3602               943.2081              1004.8856
 Red. masses --      1.3601                 1.3205                 1.1893
 Frc consts  --      0.7116                 0.6922                 0.7076
 IR Inten    --     78.5062                 0.0000                 0.0000

                     10                     11                     12
                      A                      A                      A
 Frequencies --   1007.8751              1061.6297              1235.0164
 Red. masses --      1.1941                 1.0933                 1.8863
 Frc consts  --      0.7147                 0.7260                 1.6952
 IR Inten    --      1.7285                35.3088                 0.0000

                     13                     14                     15
                      A                      A                      A
 Frequencies --   1321.8750              1326.0607              1424.8812
 Red. masses --      1.3968                 1.2879                 1.2673
 Frc consts  --      1.4381                 1.3343                 1.5160
 IR Inten    --      0.0000                 2.1529                 3.9825

                     16                     17                     18
                      A                      A                      A
 Frequencies --   1486.9136              1651.7150              1708.1586
 Red. masses --      1.2192                 3.4124                 4.4123
 Frc consts  --      1.5881                 5.4850                 7.5853
 IR Inten    --      0.0000                17.7531                 0.0000

                     19                     20                     21
                      A                      A                      A
 Frequencies --   3154.2567              3159.7256              3164.4476
 Red. masses --      1.0716                 1.0585                 1.0768
 Frc consts  --      6.2816                 6.2264                 6.3532
 IR Inten    --      0.0000                16.7226                 0.0000

                     22                     23                     24
                      A                      A                      A
 Frequencies --   3167.7011              3251.8686              3252.2367
 Red. masses --      1.0917                 1.1159                 1.1155
 Frc consts  --      6.4543                 6.9522                 6.9514
 IR Inten    --     11.6178                 0.0000                21.7703

 - Thermochemistry -
 -------------------
 Temperature   298.150 Kelvin.  Pressure   1.00000 Atm.
 Atom     1 has atomic number  6 and mass  12.00000

 Molecular mass:    54.04695 amu.
 Principal axes and moments of inertia in atomic units:
                           1         2         3
     Eigenvalues --    42.52281 404.86926 447.39207
           X            0.99999   0.00482  -0.00001
           Y           -0.00482   0.99999   0.00003
           Z            0.00001  -0.00003   1.00000
 This molecule is an asymmetric top.
 Rotational symmetry number  1.
 Rotational temperatures (Kelvin)      2.03688     0.21393     0.19360
 Rotational constants (GHZ):          42.44172     4.45759     4.03391
 Zero-point vibrational energy     224217.4 (Joules/Mol)
                                   53.58925 (Kcal/Mol)
 Warning -- explicit consideration of   4 degrees of freedom as
           vibrations may cause significant error
 Vibrational temperatures:    248.47   426.32   745.96   781.36  1128.90
          (Kelvin)           1303.89  1355.85  1357.07  1445.81  1450.11
                             1527.45  1776.91  1901.88  1907.91  2050.09
                             2139.34  2376.45  2457.66  4538.27  4546.14
                             4552.93  4557.62  4678.71  4679.24

 Zero-point correction=                           0.085400 (Hartree/Particle)
 Thermal correction to Energy=                    0.090047
 Thermal correction to Enthalpy=                  0.090991
 Thermal correction to Gibbs Free Energy=         0.058953
 Sum of electronic and zero-point Energies=           -155.817873
 Sum of electronic and thermal Energies=              -155.813227
 Sum of electronic and thermal Enthalpies=            -155.812282
 Sum of electronic and thermal Free Energies=         -155.844321

                     E (Thermal)             CV                S
                      KCal/Mol        Cal/Mol-Kelvin    Cal/Mol-Kelvin
 Total                   56.505             15.706             67.430
 Electronic               0.000              0.000              0.000
 Translational            0.889              2.981             37.884
 Rotational               0.889              2.981             23.558
 Vibrational             54.728              9.744              5.988
 Vibration     1          0.626              1.876              2.406
 Vibration     2          0.690              1.681              1.438
 Vibration     3          0.873              1.209              0.614
 Vibration     4          0.898              1.155              0.559

 Optimization completed.
    -- Stationary point found.
 Normal termination of Gaussian 16 at Fri May 31 16:45:05 2019.
