 Gaussian 16, Revision A.03,
 Gaussian 16:  ES64L-G16RevA.03 25-Dec-2016

 ----------------------------------------------------------------------
 # opt=(maxcyc=500,modredundant) uB2PLYPD3/cc-pvtz scf=maxcyc=500 nosym
 m
 ----------------------------------------------------------------------

 -------------------
 Title Card Required
 -------------------
 Symbolic Z-matrix:
 Charge =  0 Multiplicity = 1

 SCF Done:  E(UB2PLYPD3) =  -155.689130547     A.U. after   11 cycles
 E2(B2PLYPD3) =    -0.2141427479D+00 E(B2PLYPD3) =    -0.15590327329538D+03
 Optimization completed.
    -- Stationary point found.
 SCF Done:  E(UB2PLYPD3) =  -155.688671585     A.U. after   10 cycles
 E2(B2PLYPD3) =    -0.2141419709D+00 E(B2PLYPD3) =    -0.15590281355622D+03
 SCF Done:  E(UB2PLYPD3) =  -155.688612076     A.U. after   10 cycles
 E2(B2PLYPD3) =    -0.2141698463D+00 E(B2PLYPD3) =    -0.15590278192274D+03
 SCF Done:  E(UB2PLYPD3) =  -155.688799134     A.U. after    7 cycles
 E2(B2PLYPD3) =    -0.2141467234D+00 E(B2PLYPD3) =    -0.15590294585760D+03
 SCF Done:  E(UB2PLYPD3) =  -155.688801004     A.U. after    6 cycles
 E2(B2PLYPD3) =    -0.2141450377D+00 E(B2PLYPD3) =    -0.15590294604161D+03
 Optimization completed.
 SCF Done:  E(UB2PLYPD3) =  -155.687724546     A.U. after   10 cycles
 E2(B2PLYPD3) =    -0.2141432706D+00 E(B2PLYPD3) =    -0.15590186781700D+03
 SCF Done:  E(UB2PLYPD3) =  -155.687835464     A.U. after    8 cycles
 E2(B2PLYPD3) =    -0.2141441494D+00 E(B2PLYPD3) =    -0.15590197961360D+03
 SCF Done:  E(UB2PLYPD3) =  -155.687831485     A.U. after    7 cycles
 E2(B2PLYPD3) =    -0.2141485584D+00 E(B2PLYPD3) =    -0.15590198004315D+03
 SCF Done:  E(UB2PLYPD3) =  -155.686207670     A.U. after   10 cycles
 E2(B2PLYPD3) =    -0.2141483039D+00 E(B2PLYPD3) =    -0.15590035597366D+03
 SCF Done:  E(UB2PLYPD3) =  -155.686281774     A.U. after    9 cycles
 E2(B2PLYPD3) =    -0.2141522879D+00 E(B2PLYPD3) =    -0.15590043406228D+03
 E2(B2PLYPD3) =    -0.2141495338D+00 E(B2PLYPD3) =    -0.15590043473156D+03
 E2(B2PLYPD3) =    -0.2141520546D+00 E(B2PLYPD3) =    -0.15589838951038D+03
 E2(B2PLYPD3) =    -0.2141321285D+00 E(B2PLYPD3) =    -0.15589843177539D+03
 E2(B2PLYPD3) =    -0.2141333126D+00 E(B2PLYPD3) =    -0.15589843204470D+03
 E2(B2PLYPD3) =    -0.2141427363D+00 E(B2PLYPD3) =    -0.15589617460676D+03
 E2(B2PLYPD3) =    -0.2140960147D+00 E(B2PLYPD3) =    -0.15589619957798D+03
 E2(B2PLYPD3) =    -0.2140911438D+00 E(B2PLYPD3) =    -0.15589620021108D+03
 E2(B2PLYPD3) =    -0.2141040080D+00 E(B2PLYPD3) =    -0.15589406015095D+03
 E2(B2PLYPD3) =    -0.2140044520D+00 E(B2PLYPD3) =    -0.15589411786207D+03
 E2(B2PLYPD3) =    -0.2140053656D+00 E(B2PLYPD3) =    -0.15589412054612D+03
 E2(B2PLYPD3) =    -0.2138946643D+00 E(B2PLYPD3) =    -0.15589397125140D+03
 E2(B2PLYPD3) =    -0.2140070708D+00 E(B2PLYPD3) =    -0.15589411674666D+03
 E2(B2PLYPD3) =    -0.2140047121D+00 E(B2PLYPD3) =    -0.15589412019396D+03
 E2(B2PLYPD3) =    -0.2139922669D+00 E(B2PLYPD3) =    -0.15589613330331D+03
 E2(B2PLYPD3) =    -0.2140951064D+00 E(B2PLYPD3) =    -0.15589619713412D+03
 E2(B2PLYPD3) =    -0.2140901948D+00 E(B2PLYPD3) =    -0.15589619837953D+03
 E2(B2PLYPD3) =    -0.2140802077D+00 E(B2PLYPD3) =    -0.15589840500413D+03
 E2(B2PLYPD3) =    -0.2141343037D+00 E(B2PLYPD3) =    -0.15589843048403D+03
 E2(B2PLYPD3) =    -0.2141293004D+00 E(B2PLYPD3) =    -0.15590038902279D+03
 E2(B2PLYPD3) =    -0.2141371039D+00 E(B2PLYPD3) =    -0.15590043125455D+03
 SCF Done:  E(UB2PLYPD3) =  -155.686283121     A.U. after    7 cycles
 E2(B2PLYPD3) =    -0.2141503795D+00 E(B2PLYPD3) =    -0.15590043350069D+03
 SCF Done:  E(UB2PLYPD3) =  -155.687748876     A.U. after   10 cycles
 E2(B2PLYPD3) =    -0.2141467775D+00 E(B2PLYPD3) =    -0.15590189565303D+03
 SCF Done:  E(UB2PLYPD3) =  -155.687832710     A.U. after    9 cycles
 E2(B2PLYPD3) =    -0.2141457815D+00 E(B2PLYPD3) =    -0.15590197849186D+03
 SCF Done:  E(UB2PLYPD3) =  -155.687829106     A.U. after    7 cycles
 E2(B2PLYPD3) =    -0.2141498552D+00 E(B2PLYPD3) =    -0.15590197896097D+03
 SCF Done:  E(UB2PLYPD3) =  -155.688680840     A.U. after   10 cycles
 E2(B2PLYPD3) =    -0.2141482101D+00 E(B2PLYPD3) =    -0.15590282905054D+03
 SCF Done:  E(UB2PLYPD3) =  -155.688801102     A.U. after    9 cycles
 E2(B2PLYPD3) =    -0.2141437571D+00 E(B2PLYPD3) =    -0.15590294485916D+03
 SCF Done:  E(UB2PLYPD3) =  -155.688798879     A.U. after    6 cycles
 E2(B2PLYPD3) =    -0.2141466590D+00 E(B2PLYPD3) =    -0.15590294553832D+03
    -- Stationary point found.
 SCF Done:  E(UB2PLYPD3) =  -155.688995484     A.U. after   10 cycles
 E2(B2PLYPD3) =    -0.2141444527D+00 E(B2PLYPD3) =    -0.15590313993619D+03
 SCF Done:  E(UB2PLYPD3) =  -155.689131534     A.U. after    9 cycles
 E2(B2PLYPD3) =    -0.2141424430D+00 E(B2PLYPD3) =    -0.15590327397677D+03
 SCF Done:  E(UB2PLYPD3) =  -155.689129983     A.U. after    6 cycles
 E2(B2PLYPD3) =    -0.2141441934D+00 E(B2PLYPD3) =    -0.15590327417664D+03
 Optimization completed.
    -- Stationary point found.

                          Input orientation:
 ---------------------------------------------------------------------
 Center     Atomic      Atomic             Coordinates (Angstroms)
 Number     Number       Type             X           Y           Z
 ---------------------------------------------------------------------
      1          6           0        1.661260   -0.797676    0.000069
      2          6           0        0.712286    0.142600   -0.000016
      3          1           0        1.407094   -1.849086    0.000196
      4          1           0        2.710170   -0.542945   -0.000084
      5          1           0        0.996624    1.188856    0.000031
      6          6           0       -0.712152   -0.142379   -0.000028
      7          6           0       -1.661345    0.797651   -0.000046
      8          1           0       -0.996233   -1.188714    0.000049
      9          1           0       -2.710169    0.542550   -0.000194
     10          1           0       -1.407538    1.849142    0.000005
 ---------------------------------------------------------------------

 Alpha  occ. eigenvalues --  -10.62416 -10.62358 -10.61365 -10.61364  -0.92857
 Alpha  occ. eigenvalues --   -0.84772  -0.70050  -0.64000  -0.54446  -0.53841
 Alpha  occ. eigenvalues --   -0.46536  -0.45515  -0.41053  -0.37979  -0.27509
 Alpha virt. eigenvalues --    0.02354   0.10015   0.10261   0.11035   0.12348
 Alpha virt. eigenvalues --    0.15800   0.16110   0.18475   0.23894   0.28353
 Alpha virt. eigenvalues --    0.33987   0.34152   0.36452   0.37081   0.39245

  Beta  occ. eigenvalues --  -10.62416 -10.62358 -10.61365 -10.61364  -0.92857
  Beta  occ. eigenvalues --   -0.84772  -0.70050  -0.64000  -0.54446  -0.53841
  Beta  occ. eigenvalues --   -0.46536  -0.45515  -0.41053  -0.37979  -0.27509
  Beta virt. eigenvalues --    0.02354   0.10015   0.10261   0.11035   0.12348
  Beta virt. eigenvalues --    0.15800   0.16110   0.18475   0.23894   0.28353
  Beta virt. eigenvalues --    0.33987   0.34152   0.36452   0.37081   0.39245

 Mulliken charges and spin densities:
               1          2
     1  C   -0.311087  -0.000000
     2  C   -0.062835   0.000000
     3  H    0.120475   0.000000
     4  H    0.126311  -0.000000
     5  H    0.127137   0.000000
     6  C   -0.062806  -0.000000
     7  C   -0.311101   0.000000
     8  H    0.127118   0.000000
     9  H    0.126301  -0.000000
    10  H    0.120486   0.000000
 Sum of Mulliken charges =  -0.00000   0.00000

 Dipole moment (field-independent basis, Debye):
    X=              0.0002    Y=             -0.0000    Z=             -0.0000  Tot=              0.0002
 Quadrupole moment (field-independent basis, Debye-Ang):
   XX=            -23.3353   YY=            -22.9547   ZZ=            -29.0265
   XY=              0.0438   XZ=              0.0001   YZ=             -0.0002

 Normal termination of Gaussian 16 at Fri Nov 29 16:55:59 2019.
