 Gaussian 16, Revision B.01,
 Gaussian 16:  ES64L-G16RevB.01 20-Dec-2017

 -----------------------------------------------
 # opt=maxcyc=500 freq=noraman uB2PLYPD3/cc-pvtz
 -----------------------------------------------

 -------------------
 Title Card Required
 -------------------
 Symbolic Z-matrix:
 Charge =  0 Multiplicity = 2

 SCF Done:  E(UB2PLYPD3) =  -155.008029654     A.U. after   23 cycles
 E2(B2PLYPD3) =    -0.2019713897D+00 E(B2PLYPD3) =    -0.15521000104351D+03
 SCF Done:  E(UB2PLYPD3) =  -155.017840183     A.U. after   17 cycles
 E2(B2PLYPD3) =    -0.2015298495D+00 E(B2PLYPD3) =    -0.15521937003251D+03
 SCF Done:  E(UB2PLYPD3) =  -155.019307331     A.U. after   16 cycles
 E2(B2PLYPD3) =    -0.2015668215D+00 E(B2PLYPD3) =    -0.15522087415270D+03
 SCF Done:  E(UB2PLYPD3) =  -155.019423695     A.U. after   16 cycles
 E2(B2PLYPD3) =    -0.2016235389D+00 E(B2PLYPD3) =    -0.15522104723418D+03
 SCF Done:  E(UB2PLYPD3) =  -155.019447680     A.U. after   15 cycles
 E2(B2PLYPD3) =    -0.2016212063D+00 E(B2PLYPD3) =    -0.15522106888609D+03
 SCF Done:  E(UB2PLYPD3) =  -155.019450722     A.U. after   12 cycles
 E2(B2PLYPD3) =    -0.2016206662D+00 E(B2PLYPD3) =    -0.15522107138833D+03
 Optimization completed.
    -- Stationary point found.
 Normal termination of Gaussian 16 at Fri May 31 17:14:28 2019.

 ----------------------------------------------------------------------
 #N Geom=AllCheck Guess=TCheck SCRF=Check GenChk UB2PLYPD3(FC)/CC-pVTZ
 Freq
 ----------------------------------------------------------------------

 Structure from the checkpoint file:  "/localscratch/339542/Gau-36570.chk"
 -------------------
 Title Card Required
 -------------------
 Charge =  0 Multiplicity = 2

                         Standard orientation:
 ---------------------------------------------------------------------
 Center     Atomic      Atomic             Coordinates (Angstroms)
 Number     Number       Type             X           Y           Z
 ---------------------------------------------------------------------
      1          6           0       -1.898128   -0.022522   -0.000021
      2          6           0       -0.619266   -0.306862   -0.000017
      3          6           0        0.632608    0.390072    0.000018
      4          6           0        1.830313   -0.196953    0.000015
      5          1           0        0.570872    1.477827    0.000050
      6          1           0        2.737007    0.388487    0.000043
      7          1           0        1.924430   -1.272908   -0.000016
      8          1           0       -2.663005   -0.787247   -0.000055
      9          1           0       -2.242465    1.011430    0.000008
 ---------------------------------------------------------------------

 SCF Done:  E(UB2PLYPD3) =  -155.019450722     A.U. after    1 cycles
 E2(B2PLYPD3) =    -0.2016206588D+00 E(B2PLYPD3) =    -0.15522107138098D+03
 E2(B2PLYPD3) =    -0.2016206588D+00 E(B2PLYPD3) =    -0.15522107138098D+03

 The electronic state is 2-A.
 Alpha  occ. eigenvalues --  -10.64449 -10.63603 -10.62449 -10.61559  -0.93665
 Alpha  occ. eigenvalues --   -0.85936  -0.71544  -0.61699  -0.55606  -0.53321
 Alpha  occ. eigenvalues --   -0.48419  -0.45065  -0.39231  -0.29392  -0.28398
 Alpha virt. eigenvalues --    0.01697   0.10009   0.10912   0.12151   0.13344
 Alpha virt. eigenvalues --    0.15874   0.16389   0.22331   0.25410   0.33442
 Alpha virt. eigenvalues --    0.33784   0.35517   0.36864   0.39409   0.39671

  Beta  occ. eigenvalues --  -10.63749 -10.62405 -10.62213 -10.61924  -0.91767
  Beta  occ. eigenvalues --   -0.84924  -0.70627  -0.59477  -0.54720  -0.51306
  Beta  occ. eigenvalues --   -0.47526  -0.44102  -0.38248  -0.28465
  Beta virt. eigenvalues --   -0.00316   0.01933   0.10523   0.11167   0.12378
  Beta virt. eigenvalues --    0.14872   0.16266   0.16625   0.22885   0.25824
  Beta virt. eigenvalues --    0.33782   0.33843   0.36074   0.39150   0.39294

 Mulliken charges and spin densities:
               1          2
     1  C   -0.352176  -0.245645
     2  C    0.060640   1.060837
     3  C   -0.082088  -0.110730
     4  C   -0.289181   0.125657
     5  H    0.134056   0.055231
     6  H    0.132648  -0.006681
     7  H    0.131777   0.000831
     8  H    0.139888   0.037121
     9  H    0.124435   0.083379
 Sum of Mulliken charges =  -0.00000   1.00000

 Dipole moment (field-independent basis, Debye):
    X=              0.2463    Y=              0.5922    Z=              0.0000  Tot=              0.6413
 Quadrupole moment (field-independent basis, Debye-Ang):
   XX=            -21.3443   YY=            -23.3040   ZZ=            -28.1348
   XY=             -0.2844   XZ=              0.0001   YZ=              0.0001

  Exact polarizability:  84.494  -4.841  40.845   0.000   0.000  26.281
 Approx polarizability:  91.438  -8.304  46.065   0.000   0.000  32.944

                      1                      2                      3
                      A                      A                      A
 Frequencies --    103.6354               235.1775               413.1810
 Red. masses --      2.3182                 2.3419                 1.1988
 Frc consts  --      0.0147                 0.0763                 0.1206
 IR Inten    --      2.1741                 2.0914                 6.4418

                      4                      5                      6
                      A                      A                      A
 Frequencies --    484.2284               739.3811               875.8808
 Red. masses --      2.7441                 1.8485                 2.0706
 Frc consts  --      0.3791                 0.5954                 0.9359
 IR Inten    --      0.6680                 1.1700                 0.6266

                      7                      8                      9
                      A                      A                      A
 Frequencies --    901.2270               969.3351               983.5368
 Red. masses --      1.3317                 1.3346                 1.3269
 Frc consts  --      0.6373                 0.7388                 0.7563
 IR Inten    --     45.2451                42.6223                 0.8339

                     10                     11                     12
                      A                      A                      A
 Frequencies --   1012.6593              1160.7213              1316.4554
 Red. masses --      1.1164                 2.1491                 1.2638
 Frc consts  --      0.6745                 1.7060                 1.2905
 IR Inten    --     13.3931                 1.3728                 1.1376

                     13                     14                     15
                      A                      A                      A
 Frequencies --   1414.8694              1463.1852              1675.8024
 Red. masses --      1.1400                 1.1910                 4.3403
 Frc consts  --      1.3445                 1.5023                 7.1815
 IR Inten    --      7.1764                 0.4500                19.0901

                     16                     17                     18
                      A                      A                      A
 Frequencies --   1834.7866              3072.5918              3093.8865
 Red. masses --      8.5572                 1.0662                 1.0844
 Frc consts  --     16.9727                 5.9307                 6.1156
 IR Inten    --      8.9217                 4.7824                13.2415

                     19                     20                     21
                      A                      A                      A
 Frequencies --   3172.3814              3196.3387              3263.6252
 Red. masses --      1.0618                 1.1016                 1.1176
 Frc consts  --      6.2961                 6.6309                 7.0137
 IR Inten    --      3.5968                 2.1831                 5.3896

 - Thermochemistry -
 -------------------
 Temperature   298.150 Kelvin.  Pressure   1.00000 Atm.
 Atom     1 has atomic number  6 and mass  12.00000

 Molecular mass:    53.03913 amu.
 Principal axes and moments of inertia in atomic units:
                           1         2         3
     Eigenvalues --    32.32582 416.62828 448.95410
           X            0.99998  -0.00654  -0.00001
           Y            0.00654   0.99998  -0.00003
           Z            0.00001   0.00003   1.00000
 This molecule is an asymmetric top.
 Rotational symmetry number  1.
 Rotational temperatures (Kelvin)      2.67940     0.20789     0.19292
 Rotational constants (GHZ):          55.82971     4.33178     4.01988
 Zero-point vibrational energy     187711.3 (Joules/Mol)
                                   44.86409 (Kcal/Mol)
 Warning -- explicit consideration of   4 degrees of freedom as
           vibrations may cause significant error
 Vibrational temperatures:    149.11   338.37   594.48   696.70  1063.80
          (Kelvin)           1260.20  1296.66  1394.66  1415.09  1456.99
                             1670.02  1894.09  2035.68  2105.20  2411.11
                             2639.85  4420.77  4451.41  4564.35  4598.82
                             4695.63

 Zero-point correction=                           0.071495 (Hartree/Particle)
 Thermal correction to Energy=                    0.076469
 Thermal correction to Enthalpy=                  0.077413
 Thermal correction to Gibbs Free Energy=         0.044000
 Sum of electronic and zero-point Energies=           -155.149576
 Sum of electronic and thermal Energies=              -155.144602
 Sum of electronic and thermal Enthalpies=            -155.143658
 Sum of electronic and thermal Free Energies=         -155.177072

                     E (Thermal)             CV                S
                      KCal/Mol        Cal/Mol-Kelvin    Cal/Mol-Kelvin
 Total                   47.985             16.001             70.324
 Electronic               0.000              0.000              1.377
 Translational            0.889              2.981             37.828
 Rotational               0.889              2.981             23.318
 Vibrational             46.208             10.040              7.801
 Vibration     1          0.605              1.946              3.385
 Vibration     2          0.655              1.787              1.839
 Vibration     3          0.777              1.442              0.915
 Vibration     4          0.840              1.285              0.699

 Optimization completed.
    -- Stationary point found.
 Normal termination of Gaussian 16 at Fri May 31 17:21:26 2019.
