 Gaussian 16, Revision B.01,
 Gaussian 16:  ES64L-G16RevB.01 20-Dec-2017

 -----------------------------------------------
 # opt=maxcyc=500 freq=noraman uB2PLYPD3/cc-pvtz
 -----------------------------------------------

 -------------------
 Title Card Required
 -------------------
 Symbolic Z-matrix:
 Charge =  0 Multiplicity = 2

 SCF Done:  E(UB2PLYPD3) =  -155.005942260     A.U. after   24 cycles
 E2(B2PLYPD3) =    -0.2018014489D+00 E(B2PLYPD3) =    -0.15520774370846D+03
 SCF Done:  E(UB2PLYPD3) =  -155.013467280     A.U. after   18 cycles
 E2(B2PLYPD3) =    -0.2008825334D+00 E(B2PLYPD3) =    -0.15521434981327D+03
 SCF Done:  E(UB2PLYPD3) =  -155.014244064     A.U. after   17 cycles
 E2(B2PLYPD3) =    -0.2008219113D+00 E(B2PLYPD3) =    -0.15521506597542D+03
 SCF Done:  E(UB2PLYPD3) =  -155.014291210     A.U. after   16 cycles
 E2(B2PLYPD3) =    -0.2008547535D+00 E(B2PLYPD3) =    -0.15521514596383D+03
 SCF Done:  E(UB2PLYPD3) =  -155.014285804     A.U. after   13 cycles
 E2(B2PLYPD3) =    -0.2008652892D+00 E(B2PLYPD3) =    -0.15521515109297D+03
 SCF Done:  E(UB2PLYPD3) =  -155.014285860     A.U. after   12 cycles
 E2(B2PLYPD3) =    -0.2008657967D+00 E(B2PLYPD3) =    -0.15521515165640D+03
 Optimization completed.
    -- Stationary point found.
 Normal termination of Gaussian 16 at Fri May 31 17:02:08 2019.

 ----------------------------------------------------------------------
 #N Geom=AllCheck Guess=TCheck SCRF=Check GenChk UB2PLYPD3(FC)/CC-pVTZ
 Freq
 ----------------------------------------------------------------------

 Structure from the checkpoint file:  "/localscratch/339542/Gau-93147.chk"
 -------------------
 Title Card Required
 -------------------
 Charge =  0 Multiplicity = 2

                         Standard orientation:
 ---------------------------------------------------------------------
 Center     Atomic      Atomic             Coordinates (Angstroms)
 Number     Number       Type             X           Y           Z
 ---------------------------------------------------------------------
      1          6           0        1.914328   -0.032070   -0.000031
      2          6           0        0.686753    0.426885   -0.000030
      3          1           0        2.408877   -0.988707   -0.000023
      4          1           0        0.519151    1.500811    0.000001
      5          6           0       -0.516984   -0.412275    0.000032
      6          6           0       -1.753467    0.082086    0.000016
      7          1           0       -0.362284   -1.483790    0.000090
      8          1           0       -2.617579   -0.564789    0.000059
      9          1           0       -1.931941    1.148721   -0.000043
 ---------------------------------------------------------------------

 SCF Done:  E(UB2PLYPD3) =  -155.014285860     A.U. after    1 cycles
 E2(B2PLYPD3) =    -0.2008657959D+00 E(B2PLYPD3) =    -0.15521515165567D+03
 E2(B2PLYPD3) =    -0.2008657959D+00 E(B2PLYPD3) =    -0.15521515165567D+03

 The electronic state is 2-A.
 Alpha  occ. eigenvalues --  -10.64299 -10.63255 -10.62799 -10.61506  -0.93609
 Alpha  occ. eigenvalues --   -0.85534  -0.69615  -0.64734  -0.55816  -0.52372
 Alpha  occ. eigenvalues --   -0.48060  -0.43586  -0.38721  -0.31159  -0.28873
 Alpha virt. eigenvalues --    0.02291   0.09877   0.10082   0.12168   0.12341
 Alpha virt. eigenvalues --    0.14850   0.17283   0.23967   0.27643   0.33007
 Alpha virt. eigenvalues --    0.33671   0.35091   0.36996   0.39106   0.39183

  Beta  occ. eigenvalues --  -10.63194 -10.62856 -10.62123 -10.61739  -0.92705
  Beta  occ. eigenvalues --   -0.83829  -0.67399  -0.63585  -0.54976  -0.50950
  Beta  occ. eigenvalues --   -0.47377  -0.42841  -0.38594  -0.27945
  Beta virt. eigenvalues --   -0.00491   0.03416   0.10079   0.10209   0.12285
  Beta virt. eigenvalues --    0.12616   0.15094   0.17474   0.24356   0.29004
  Beta virt. eigenvalues --    0.33851   0.34521   0.35510   0.37195   0.39471

 Mulliken charges and spin densities:
               1          2
     1  C   -0.244080   1.165100
     2  C   -0.061601  -0.245904
     3  H    0.156036   0.014997
     4  H    0.140655   0.039122
     5  C   -0.065867   0.169718
     6  C   -0.305959  -0.152930
     7  H    0.130747  -0.006456
     8  H    0.127897   0.009986
     9  H    0.122173   0.006366
 Sum of Mulliken charges =  -0.00000   1.00000

 Dipole moment (field-independent basis, Debye):
    X=             -0.4831    Y=             -0.4836    Z=              0.0001  Tot=              0.6836
 Quadrupole moment (field-independent basis, Debye-Ang):
   XX=            -24.2404   YY=            -22.2104   ZZ=            -28.1502
   XY=             -1.9030   XZ=              0.0000   YZ=             -0.0001

  Exact polarizability:  78.071  -6.726  41.040  -0.000  -0.000  26.351
 Approx polarizability:  85.400 -10.210  46.353  -0.000  -0.000  33.101

                      1                      2                      3
                      A                      A                      A
 Frequencies --    158.2094               292.0810               488.0684
 Red. masses --      2.6318                 2.2825                 2.4197
 Frc consts  --      0.0388                 0.1147                 0.3396
 IR Inten    --      0.1734                 0.8753                 2.3237

                      4                      5                      6
                      A                      A                      A
 Frequencies --    590.5603               741.4114               852.2358
 Red. masses --      1.2162                 1.5633                 1.6576
 Frc consts  --      0.2499                 0.5063                 0.7093
 IR Inten    --      0.1899                42.8671                34.2389

                      7                      8                      9
                      A                      A                      A
 Frequencies --    919.5462               944.4798               956.2288
 Red. masses --      1.3116                 1.5283                 1.3852
 Frc consts  --      0.6534                 0.8032                 0.7463
 IR Inten    --     14.9772                 6.3695                52.1375

                     10                     11                     12
                      A                      A                      A
 Frequencies --   1041.9625              1168.9874              1269.7870
 Red. masses --      1.0950                 2.2689                 1.1579
 Frc consts  --      0.7004                 1.8268                 1.1000
 IR Inten    --     26.6944                 0.1116                 1.2262

                     13                     14                     15
                      A                      A                      A
 Frequencies --   1332.9791              1457.9609              1664.5299
 Red. masses --      1.2592                 1.2085                 5.1377
 Frc consts  --      1.3182                 1.5136                 8.3869
 IR Inten    --      1.1041                 2.3655                 9.8783

                     16                     17                     18
                      A                      A                      A
 Frequencies --   1766.3875              3124.5662              3161.7111
 Red. masses --      5.9406                 1.0855                 1.0589
 Frc consts  --     10.9207                 6.2437                 6.2366
 IR Inten    --      4.9086                 3.3352                 6.2661

                     19                     20                     21
                      A                      A                      A
 Frequencies --   3179.8467              3253.0988              3260.8783
 Red. masses --      1.0930                 1.1161                 1.1044
 Frc consts  --      6.5116                 6.9589                 6.9191
 IR Inten    --      6.1094                 9.6487                 0.1360

 - Thermochemistry -
 -------------------
 Temperature   298.150 Kelvin.  Pressure   1.00000 Atm.
 Atom     1 has atomic number  6 and mass  12.00000

 Molecular mass:    53.03913 amu.
 Principal axes and moments of inertia in atomic units:
                           1         2         3
     Eigenvalues --    40.74266 380.73788 421.48053
           X            0.99983  -0.01867   0.00001
           Y            0.01867   0.99983   0.00004
           Z           -0.00002  -0.00004   1.00000
 This molecule is an asymmetric top.
 Rotational symmetry number  1.
 Rotational temperatures (Kelvin)      2.12588     0.22749     0.20550
 Rotational constants (GHZ):          44.29611     4.74011     4.28191
 Zero-point vibrational energy     189162.6 (Joules/Mol)
                                   45.21095 (Kcal/Mol)
 Warning -- explicit consideration of   4 degrees of freedom as
           vibrations may cause significant error
 Vibrational temperatures:    227.63   420.24   702.22   849.68  1066.73
          (Kelvin)           1226.18  1323.02  1358.90  1375.80  1499.15
                             1681.91  1826.94  1917.86  2097.68  2394.89
                             2541.44  4495.55  4549.00  4575.09  4680.48
                             4691.68

 Zero-point correction=                           0.072048 (Hartree/Particle)
 Thermal correction to Energy=                    0.076722
 Thermal correction to Enthalpy=                  0.077666
 Thermal correction to Gibbs Free Energy=         0.044987
 Sum of electronic and zero-point Energies=           -155.143103
 Sum of electronic and thermal Energies=              -155.138430
 Sum of electronic and thermal Enthalpies=            -155.137485
 Sum of electronic and thermal Free Energies=         -155.170165

                     E (Thermal)             CV                S
                      KCal/Mol        Cal/Mol-Kelvin    Cal/Mol-Kelvin
 Total                   48.144             15.549             68.780
 Electronic               0.000              0.000              1.377
 Translational            0.889              2.981             37.828
 Rotational               0.889              2.981             23.396
 Vibrational             46.366              9.588              6.179
 Vibration     1          0.621              1.893              2.571
 Vibration     2          0.687              1.688              1.462
 Vibration     3          0.844              1.276              0.689
 Vibration     4          0.948              1.052              0.466

 Optimization completed.
    -- Stationary point found.
 Normal termination of Gaussian 16 at Fri May 31 17:09:25 2019.
