 Gaussian 16, Revision B.01,
 Gaussian 16:  ES64L-G16RevB.01 20-Dec-2017

 -----------------------------------------------
 # opt=maxcyc=500 freq=noraman uB2PLYPD3/cc-pvtz
 -----------------------------------------------

 -------------------
 Title Card Required
 -------------------
 Symbolic Z-matrix:
 Charge =  0 Multiplicity = 2

 SCF Done:  E(UB2PLYPD3) =  -155.029704410     A.U. after   20 cycles
 E2(B2PLYPD3) =    -0.2033517980D+00 E(B2PLYPD3) =    -0.15523305620755D+03
 SCF Done:  E(UB2PLYPD3) =  -155.029620749     A.U. after   13 cycles
 E2(B2PLYPD3) =    -0.2034954636D+00 E(B2PLYPD3) =    -0.15523311621211D+03
 SCF Done:  E(UB2PLYPD3) =  -155.029617007     A.U. after   12 cycles
 E2(B2PLYPD3) =    -0.2034992724D+00 E(B2PLYPD3) =    -0.15523311627888D+03
 SCF Done:  E(UB2PLYPD3) =  -155.029618053     A.U. after   12 cycles
 E2(B2PLYPD3) =    -0.2034998738D+00 E(B2PLYPD3) =    -0.15523311792647D+03
 SCF Done:  E(UB2PLYPD3) =  -155.029624947     A.U. after   11 cycles
 E2(B2PLYPD3) =    -0.2034935096D+00 E(B2PLYPD3) =    -0.15523311845651D+03
 Optimization completed.
    -- Stationary point found.
 Normal termination of Gaussian 16 at Fri May 31 17:41:04 2019.

 ----------------------------------------------------------------------
 #N Geom=AllCheck Guess=TCheck SCRF=Check GenChk UB2PLYPD3(FC)/CC-pVTZ
 Freq
 ----------------------------------------------------------------------

 Structure from the checkpoint file:  "/localscratch/339542/Gau-60928.chk"
 -------------------
 Title Card Required
 -------------------
 Charge =  0 Multiplicity = 2

                         Standard orientation:
 ---------------------------------------------------------------------
 Center     Atomic      Atomic             Coordinates (Angstroms)
 Number     Number       Type             X           Y           Z
 ---------------------------------------------------------------------
      1          6           0       -1.964754   -0.230890    0.000000
      2          1           0       -2.972218   -0.559341    0.000000
      3          6           0       -0.807184    0.152839    0.000001
      4          6           0        0.502401    0.571570    0.000000
      5          1           0        0.698248    1.635082    0.000000
      6          6           0        1.661828   -0.369069   -0.000000
      7          1           0        2.294682   -0.209251   -0.876180
      8          1           0        2.294681   -0.209254    0.876181
      9          1           0        1.330858   -1.403942   -0.000002
 ---------------------------------------------------------------------

 SCF Done:  E(UB2PLYPD3) =  -155.029624947     A.U. after    1 cycles
 E2(B2PLYPD3) =    -0.2034935072D+00 E(B2PLYPD3) =    -0.15523311845413D+03
 E2(B2PLYPD3) =    -0.2034935072D+00 E(B2PLYPD3) =    -0.15523311845413D+03

 The electronic state is 2-A.
 Alpha  occ. eigenvalues --  -10.64527 -10.62165 -10.61857 -10.61739  -0.92578
 Alpha  occ. eigenvalues --   -0.85129  -0.75006  -0.61429  -0.56069  -0.49798
 Alpha  occ. eigenvalues --   -0.49245  -0.44611  -0.38730  -0.32673  -0.25279
 Alpha virt. eigenvalues --    0.07471   0.10575   0.11437   0.12473   0.14514
 Alpha virt. eigenvalues --    0.15332   0.15508   0.22844   0.24527   0.29883
 Alpha virt. eigenvalues --    0.30201   0.34567   0.35387   0.35957   0.37718

  Beta  occ. eigenvalues --  -10.63112 -10.62626 -10.61865 -10.61044  -0.90777
  Beta  occ. eigenvalues --   -0.83773  -0.72769  -0.60452  -0.55505  -0.48573
  Beta  occ. eigenvalues --   -0.47778  -0.44446  -0.34605  -0.32203
  Beta virt. eigenvalues --   -0.01436   0.07686   0.10822   0.11368   0.12878
  Beta virt. eigenvalues --    0.15192   0.15617   0.17661   0.23060   0.24858
  Beta virt. eigenvalues --    0.30304   0.30416   0.35062   0.36331   0.38349

 Mulliken charges and spin densities:
               1          2
     1  C   -0.230049   0.596074
     2  H    0.162610  -0.020074
     3  C    0.054836  -0.354424
     4  C   -0.182667   0.814909
     5  H    0.142830  -0.037600
     6  C   -0.262757  -0.059236
     7  H    0.102683   0.029687
     8  H    0.102683   0.029687
     9  H    0.109830   0.000976
 Sum of Mulliken charges =  -0.00000   1.00000

 Dipole moment (field-independent basis, Debye):
    X=              0.5899    Y=             -0.0553    Z=             -0.0000  Tot=              0.5925
 Quadrupole moment (field-independent basis, Debye-Ang):
   XX=            -20.1373   YY=            -24.5742   ZZ=            -26.4977
   XY=              1.7454   XZ=              0.0000   YZ=              0.0000

  Exact polarizability:  71.944   6.720  36.493   0.000   0.000  29.980
 Approx polarizability:  76.504  10.874  42.349   0.000   0.000  35.555

                      1                      2                      3
                      A                      A                      A
 Frequencies --     75.2195               210.0581               390.0524
 Red. masses --      1.1308                 3.2020                 3.5615
 Frc consts  --      0.0038                 0.0832                 0.3192
 IR Inten    --      0.5749                 1.5023                 5.1438

                      4                      5                      6
                      A                      A                      A
 Frequencies --    477.5130               551.5951               589.2750
 Red. masses --      1.1930                 4.0487                 1.4458
 Frc consts  --      0.1603                 0.7258                 0.2958
 IR Inten    --     55.5401                 5.3042                14.5689

                      7                      8                      9
                      A                      A                      A
 Frequencies --    644.8467               871.4177              1013.6646
 Red. masses --      1.2205                 2.4090                 1.3586
 Frc consts  --      0.2990                 1.0778                 0.8225
 IR Inten    --     47.7592                 1.7492                 0.0132

                     10                     11                     12
                      A                      A                      A
 Frequencies --   1106.3179              1154.3115              1396.8633
 Red. masses --      1.7528                 2.1273                 1.7052
 Frc consts  --      1.2640                 1.6701                 1.9604
 IR Inten    --      6.1945                 1.8412                16.5577

                     13                     14                     15
                      A                      A                      A
 Frequencies --   1414.5436              1489.2332              1506.0430
 Red. masses --      1.2297                 1.0459                 1.0910
 Frc consts  --      1.4497                 1.3666                 1.4579
 IR Inten    --      2.2663                 6.0135                 5.6466

                     16                     17                     18
                      A                      A                      A
 Frequencies --   2045.0963              3028.0227              3071.0835
 Red. masses --      6.6833                 1.0385                 1.0987
 Frc consts  --     16.4691                 5.6101                 6.1055
 IR Inten    --      0.2393                23.7841                16.1491

                     19                     20                     21
                      A                      A                      A
 Frequencies --   3143.2971              3187.7033              3485.7472
 Red. masses --      1.0976                 1.0861                 1.1401
 Frc consts  --      6.3893                 6.5022                 8.1620
 IR Inten    --      7.9649                 7.9431                65.2228

 - Thermochemistry -
 -------------------
 Temperature   298.150 Kelvin.  Pressure   1.00000 Atm.
 Atom     1 has atomic number  6 and mass  12.00000

 Molecular mass:    53.03913 amu.
 Principal axes and moments of inertia in atomic units:
                           1         2         3
     Eigenvalues --    46.76788 404.97457 440.69073
           X            1.00000  -0.00075   0.00000
           Y            0.00075   1.00000  -0.00000
           Z           -0.00000   0.00000   1.00000
 This molecule is an asymmetric top.
 Rotational symmetry number  1.
 Rotational temperatures (Kelvin)      1.85200     0.21387     0.19654
 Rotational constants (GHZ):          38.58933     4.45643     4.09526
 Zero-point vibrational energy     184535.4 (Joules/Mol)
                                   44.10501 (Kcal/Mol)
 Warning -- explicit consideration of   6 degrees of freedom as
           vibrations may cause significant error
 Vibrational temperatures:    108.22   302.23   561.20   687.03   793.62
          (Kelvin)            847.84   927.79  1253.78  1458.44  1591.74
                             1660.80  2009.77  2035.21  2142.67  2166.86
                             2942.44  4356.65  4418.60  4522.50  4586.39
                             5015.21

 Zero-point correction=                           0.070286 (Hartree/Particle)
 Thermal correction to Energy=                    0.075663
 Thermal correction to Enthalpy=                  0.076607
 Thermal correction to Gibbs Free Energy=         0.042199
 Sum of electronic and zero-point Energies=           -155.162833
 Sum of electronic and thermal Energies=              -155.157455
 Sum of electronic and thermal Enthalpies=            -155.156511
 Sum of electronic and thermal Free Energies=         -155.190920

                     E (Thermal)             CV                S
                      KCal/Mol        Cal/Mol-Kelvin    Cal/Mol-Kelvin
 Total                   47.479             17.457             72.419
 Electronic               0.000              0.000              1.377
 Translational            0.889              2.981             37.828
 Rotational               0.889              2.981             23.638
 Vibrational             45.702             11.495              9.575
 Vibration     1          0.599              1.966              4.012
 Vibration     2          0.642              1.825              2.043
 Vibration     3          0.758              1.491              1.000
 Vibration     4          0.834              1.300              0.717
 Vibration     5          0.907              1.136              0.541
 Vibration     6          0.947              1.055              0.468

 Optimization completed.
    -- Stationary point found.
 Normal termination of Gaussian 16 at Fri May 31 17:48:04 2019.
