 Gaussian 16, Revision B.01,
 Gaussian 16:  ES64L-G16RevB.01 20-Dec-2017

 -----------------------------------------------
 # opt=maxcyc=500 freq=noraman uB2PLYPD3/cc-pvtz
 -----------------------------------------------

 -------------------
 Title Card Required
 -------------------
 Symbolic Z-matrix:
 Charge =  0 Multiplicity = 2

 SCF Done:  E(UB2PLYPD3) =  -155.006199811     A.U. after   16 cycles
 E2(B2PLYPD3) =    -0.2034097846D+00 E(B2PLYPD3) =    -0.15520960959526D+03
 SCF Done:  E(UB2PLYPD3) =  -155.005871237     A.U. after   13 cycles
 E2(B2PLYPD3) =    -0.2038710552D+00 E(B2PLYPD3) =    -0.15520974229209D+03
 SCF Done:  E(UB2PLYPD3) =  -155.005598864     A.U. after   13 cycles
 E2(B2PLYPD3) =    -0.2040106797D+00 E(B2PLYPD3) =    -0.15520960954355D+03
 SCF Done:  E(UB2PLYPD3) =  -155.005876196     A.U. after    9 cycles
 E2(B2PLYPD3) =    -0.2038735505D+00 E(B2PLYPD3) =    -0.15520974974678D+03
 SCF Done:  E(UB2PLYPD3) =  -155.005877480     A.U. after    8 cycles
 E2(B2PLYPD3) =    -0.2038720636D+00 E(B2PLYPD3) =    -0.15520974954328D+03
 SCF Done:  E(UB2PLYPD3) =  -155.005877723     A.U. after    8 cycles
 E2(B2PLYPD3) =    -0.2038728472D+00 E(B2PLYPD3) =    -0.15520975056986D+03
 SCF Done:  E(UB2PLYPD3) =  -155.005884087     A.U. after    9 cycles
 E2(B2PLYPD3) =    -0.2038672229D+00 E(B2PLYPD3) =    -0.15520975131011D+03
 SCF Done:  E(UB2PLYPD3) =  -155.005892888     A.U. after   10 cycles
 E2(B2PLYPD3) =    -0.2038600320D+00 E(B2PLYPD3) =    -0.15520975291984D+03
 SCF Done:  E(UB2PLYPD3) =  -155.005891201     A.U. after   10 cycles
 E2(B2PLYPD3) =    -0.2038632089D+00 E(B2PLYPD3) =    -0.15520975440968D+03
 SCF Done:  E(UB2PLYPD3) =  -155.005886716     A.U. after   10 cycles
 E2(B2PLYPD3) =    -0.2038694399D+00 E(B2PLYPD3) =    -0.15520975615552D+03
 SCF Done:  E(UB2PLYPD3) =  -155.005882370     A.U. after   10 cycles
 E2(B2PLYPD3) =    -0.2038749575D+00 E(B2PLYPD3) =    -0.15520975732745D+03
 SCF Done:  E(UB2PLYPD3) =  -155.005880598     A.U. after    9 cycles
 E2(B2PLYPD3) =    -0.2038768816D+00 E(B2PLYPD3) =    -0.15520975747967D+03
 SCF Done:  E(UB2PLYPD3) =  -155.005879401     A.U. after    8 cycles
 E2(B2PLYPD3) =    -0.2038781177D+00 E(B2PLYPD3) =    -0.15520975751885D+03
 SCF Done:  E(UB2PLYPD3) =  -155.005879274     A.U. after    8 cycles
 E2(B2PLYPD3) =    -0.2038782574D+00 E(B2PLYPD3) =    -0.15520975753097D+03
 SCF Done:  E(UB2PLYPD3) =  -155.005879523     A.U. after    8 cycles
 E2(B2PLYPD3) =    -0.2038780105D+00 E(B2PLYPD3) =    -0.15520975753314D+03
 Optimization completed on the basis of negligible forces.
    -- Stationary point found.
 Normal termination of Gaussian 16 at Fri May 31 17:59:28 2019.

 ----------------------------------------------------------------------
 #N Geom=AllCheck Guess=TCheck SCRF=Check GenChk UB2PLYPD3(FC)/CC-pVTZ
 Freq
 ----------------------------------------------------------------------

 Structure from the checkpoint file:  "/localscratch/339542/Gau-53904.chk"
 -------------------
 Title Card Required
 -------------------
 Charge =  0 Multiplicity = 2

                         Standard orientation:
 ---------------------------------------------------------------------
 Center     Atomic      Atomic             Coordinates (Angstroms)
 Number     Number       Type             X           Y           Z
 ---------------------------------------------------------------------
      1          6           0        1.908566   -0.234310   -0.004132
      2          1           0        2.914787   -0.566778   -0.008123
      3          6           0        0.766193    0.147599   -0.000120
      4          6           0       -0.623640    0.594730    0.005771
      5          1           0       -0.784715    1.233906    0.882631
      6          1           0       -0.788422    1.254045   -0.853997
      7          6           0       -1.614270   -0.521127   -0.006190
      8          1           0       -2.667690   -0.295369   -0.045339
      9          1           0       -1.295056   -1.547157    0.052856
 ---------------------------------------------------------------------

 SCF Done:  E(UB2PLYPD3) =  -155.005879523     A.U. after    1 cycles
 E2(B2PLYPD3) =    -0.2038780106D+00 E(B2PLYPD3) =    -0.15520975753316D+03
 E2(B2PLYPD3) =    -0.2038780106D+00 E(B2PLYPD3) =    -0.15520975753316D+03

 The electronic state is 2-A.
 Alpha  occ. eigenvalues --  -10.64796 -10.62927 -10.62046 -10.60607  -0.92659
 Alpha  occ. eigenvalues --   -0.84136  -0.73687  -0.61264  -0.55606  -0.52192
 Alpha  occ. eigenvalues --   -0.49078  -0.46049  -0.32577  -0.32420  -0.27534
 Alpha virt. eigenvalues --    0.07844   0.09931   0.10643   0.11313   0.12595
 Alpha virt. eigenvalues --    0.15443   0.15699   0.22086   0.24412   0.30373
 Alpha virt. eigenvalues --    0.32073   0.34917   0.35287   0.37158   0.38045

  Beta  occ. eigenvalues --  -10.64944 -10.62013 -10.61186 -10.60639  -0.91569
  Beta  occ. eigenvalues --   -0.83127  -0.70082  -0.61083  -0.55168  -0.50365
  Beta  occ. eigenvalues --   -0.48271  -0.45228  -0.32294  -0.32098
  Beta virt. eigenvalues --    0.01332   0.08066   0.10119   0.10835   0.11620
  Beta virt. eigenvalues --    0.12942   0.15644   0.15859   0.22149   0.24457
  Beta virt. eigenvalues --    0.30484   0.32226   0.34986   0.35686   0.38075

 Mulliken charges and spin densities:
               1          2
     1  C   -0.195010  -0.016818
     2  H    0.167473   0.000634
     3  C   -0.059014   0.025173
     4  C   -0.121310  -0.091594
     5  H    0.117139   0.043370
     6  H    0.117112   0.037670
     7  C   -0.296058   1.089833
     8  H    0.130278  -0.042547
     9  H    0.139390  -0.045720
 Sum of Mulliken charges =  -0.00000   1.00000

 Dipole moment (field-independent basis, Debye):
    X=             -0.6091    Y=              0.3163    Z=              0.0252  Tot=              0.6868
 Quadrupole moment (field-independent basis, Debye-Ang):
   XX=            -20.9567   YY=            -24.5327   ZZ=            -26.5711
   XY=             -2.1462   XZ=             -0.0019   YZ=             -0.0703

  Exact polarizability:  59.236  -4.039  37.511   0.068  -0.039  29.736
 Approx polarizability:  65.795  -8.181  42.859   0.034  -0.036  35.513

                      1                      2                      3
                      A                      A                      A
 Frequencies --     21.1229               206.0594               316.2826
 Red. masses --      1.0549                 3.1942                 2.6446
 Frc consts  --      0.0003                 0.0799                 0.1559
 IR Inten    --      3.7727                 1.6172                16.2963

                      4                      5                      6
                      A                      A                      A
 Frequencies --    435.2525               527.0819               649.2274
 Red. masses --      1.2665                 3.8868                 1.2353
 Frc consts  --      0.1414                 0.6362                 0.3068
 IR Inten    --     38.2269                 5.0327                45.5226

                      7                      8                      9
                      A                      A                      A
 Frequencies --    662.9092               842.9285               889.7261
 Red. masses --      1.2403                 2.4722                 1.7388
 Frc consts  --      0.3211                 1.0349                 0.8110
 IR Inten    --     44.0450                 0.3288                 1.4548

                     10                     11                     12
                      A                      A                      A
 Frequencies --   1053.3220              1098.8845              1207.2995
 Red. masses --      1.7321                 2.7063                 1.0754
 Frc consts  --      1.1322                 1.9254                 0.9236
 IR Inten    --      0.3420                 0.2003                 0.0716

                     13                     14                     15
                      A                      A                      A
 Frequencies --   1356.8390              1463.3006              1473.6195
 Red. masses --      1.5153                 1.0795                 1.1643
 Frc consts  --      1.6437                 1.3619                 1.4896
 IR Inten    --      6.7992                 5.2153                 2.3313

                     16                     17                     18
                      A                      A                      A
 Frequencies --   2192.9258              2994.0995              3012.4836
 Red. masses --      6.1172                 1.0642                 1.0909
 Frc consts  --     17.3321                 5.6207                 5.8328
 IR Inten    --      3.0250                14.6581                 8.4796

                     19                     20                     21
                      A                      A                      A
 Frequencies --   3183.9358              3301.4564              3491.3004
 Red. masses --      1.0503                 1.1203                 1.1559
 Frc consts  --      6.2735                 7.1946                 8.3011
 IR Inten    --     12.7765                 4.6828                60.2608

 - Thermochemistry -
 -------------------
 Temperature   298.150 Kelvin.  Pressure   1.00000 Atm.
 Atom     1 has atomic number  6 and mass  12.00000

 Molecular mass:    53.03913 amu.
 Principal axes and moments of inertia in atomic units:
                           1         2         3
     Eigenvalues --    56.72911 381.28790 427.11816
           X            0.99996  -0.00897   0.00011
           Y            0.00897   0.99995  -0.00353
           Z           -0.00007   0.00353   0.99999
 This molecule is an asymmetric top.
 Rotational symmetry number  1.
 Rotational temperatures (Kelvin)      1.52680     0.22716     0.20279
 Rotational constants (GHZ):          31.81332     4.73328     4.22539
 Zero-point vibrational energy     181713.1 (Joules/Mol)
                                   43.43047 (Kcal/Mol)
 Warning -- explicit consideration of   5 degrees of freedom as
           vibrations may cause significant error
 Vibrational temperatures:     30.39   296.47   455.06   626.23   758.35
          (Kelvin)            934.09   953.78  1212.79  1280.12  1515.50
                             1581.05  1737.03  1952.19  2105.36  2120.21
                             3155.13  4307.84  4334.29  4580.97  4750.06
                             5023.20

 Zero-point correction=                           0.069211 (Hartree/Particle)
 Thermal correction to Energy=                    0.074851
 Thermal correction to Enthalpy=                  0.075795
 Thermal correction to Gibbs Free Energy=         0.039882
 Sum of electronic and zero-point Energies=           -155.140547
 Sum of electronic and thermal Energies=              -155.134906
 Sum of electronic and thermal Enthalpies=            -155.133962
 Sum of electronic and thermal Free Energies=         -155.169876

                     E (Thermal)             CV                S
                      KCal/Mol        Cal/Mol-Kelvin    Cal/Mol-Kelvin
 Total                   46.970             18.032             75.586
 Electronic               0.000              0.000              1.377
 Translational            0.889              2.981             37.828
 Rotational               0.889              2.981             23.739
 Vibrational             45.192             12.070             12.642
 Vibration     1          0.593              1.985              6.526
 Vibration     2          0.641              1.831              2.078
 Vibration     3          0.703              1.643              1.329
 Vibration     4          0.796              1.393              0.842
 Vibration     5          0.882              1.190              0.594

 Optimization completed on the basis of negligible forces.
    -- Stationary point found.
 Normal termination of Gaussian 16 at Fri May 31 18:06:42 2019.
