 Gaussian 16, Revision B.01,
 Gaussian 16:  ES64L-G16RevB.01 20-Dec-2017

 -----------------------------------------------
 # opt=maxcyc=500 freq=noraman uB2PLYPD3/cc-pvtz
 -----------------------------------------------

 -------------------
 Title Card Required
 -------------------
 Symbolic Z-matrix:
 Charge =  0 Multiplicity = 1

 SCF Done:  E(UB2PLYPD3) =  -155.665681075     A.U. after   12 cycles
 E2(B2PLYPD3) =    -0.2158555848D+00 E(B2PLYPD3) =    -0.15588153666006D+03
 SCF Done:  E(UB2PLYPD3) =  -155.665357541     A.U. after    9 cycles
 E2(B2PLYPD3) =    -0.2163111677D+00 E(B2PLYPD3) =    -0.15588166870912D+03
 SCF Done:  E(UB2PLYPD3) =  -155.665243679     A.U. after    9 cycles
 E2(B2PLYPD3) =    -0.2163788219D+00 E(B2PLYPD3) =    -0.15588162250137D+03
 SCF Done:  E(UB2PLYPD3) =  -155.665359159     A.U. after   10 cycles
 E2(B2PLYPD3) =    -0.2163128791D+00 E(B2PLYPD3) =    -0.15588167203777D+03
 Optimization completed.
    -- Stationary point found.
 Normal termination of Gaussian 16 at Fri May 31 17:23:57 2019.

 ----------------------------------------------------------------------
 #N Geom=AllCheck Guess=TCheck SCRF=Check GenChk UB2PLYPD3(FC)/CC-pVTZ
 Freq
 ----------------------------------------------------------------------

 Structure from the checkpoint file:  "/localscratch/339542/Gau-19780.chk"
 -------------------
 Title Card Required
 -------------------
 Charge =  0 Multiplicity = 1

                         Standard orientation:
 ---------------------------------------------------------------------
 Center     Atomic      Atomic             Coordinates (Angstroms)
 Number     Number       Type             X           Y           Z
 ---------------------------------------------------------------------
      1          6           0        0.639537    1.865092    0.000000
      2          1           0        1.195355    2.767327    0.000000
      3          6           0       -0.000000    0.843393    0.000000
      4          6           0       -0.745124   -0.411927    0.000000
      5          1           0       -1.397885   -0.436336    0.873900
      6          1           0       -1.397885   -0.436336   -0.873900
      7          6           0        0.171780   -1.639480    0.000000
      8          1           0       -0.418570   -2.554160    0.000000
      9          1           0        0.810913   -1.641481   -0.880349
     10          1           0        0.810913   -1.641481    0.880349
 ---------------------------------------------------------------------

 SCF Done:  E(UB2PLYPD3) =  -155.665359159     A.U. after    1 cycles
 E2(B2PLYPD3) =    -0.2163128792D+00 E(B2PLYPD3) =    -0.15588167203793D+03
 E2(B2PLYPD3) =    -0.2163128792D+00 E(B2PLYPD3) =    -0.15588167203793D+03

 The electronic state is 1-A'.
 Alpha  occ. eigenvalues --  -10.64016 -10.61668 -10.61229 -10.60292  -0.91922
 Alpha  occ. eigenvalues --   -0.83851  -0.74218  -0.60798  -0.54403  -0.53389
 Alpha  occ. eigenvalues --   -0.46665  -0.43946  -0.43064  -0.31813  -0.31735
 Alpha virt. eigenvalues --    0.07368   0.10235   0.10875   0.11653   0.12415
 Alpha virt. eigenvalues --    0.14090   0.15626   0.18368   0.22628   0.25046
 Alpha virt. eigenvalues --    0.28171   0.30947   0.31481   0.34630   0.35262

  Beta  occ. eigenvalues --  -10.64016 -10.61668 -10.61229 -10.60292  -0.91922
  Beta  occ. eigenvalues --   -0.83851  -0.74218  -0.60798  -0.54403  -0.53389
  Beta  occ. eigenvalues --   -0.46665  -0.43946  -0.43064  -0.31813  -0.31735
  Beta virt. eigenvalues --    0.07368   0.10235   0.10875   0.11653   0.12415
  Beta virt. eigenvalues --    0.14090   0.15626   0.18368   0.22628   0.25046
  Beta virt. eigenvalues --    0.28171   0.30947   0.31481   0.34630   0.35262

 Mulliken charges and spin densities:
               1          2
     1  C   -0.213986   0.000000
     2  H    0.166938  -0.000000
     3  C   -0.038356   0.000000
     4  C   -0.165548  -0.000000
     5  H    0.113583   0.000000
     6  H    0.113583   0.000000
     7  C   -0.282659   0.000000
     8  H    0.097556   0.000000
     9  H    0.104445   0.000000
    10  H    0.104445   0.000000
 Sum of Mulliken charges =  -0.00000   0.00000

 Dipole moment (field-independent basis, Debye):
    X=             -0.3260    Y=             -0.7382    Z=             -0.0000  Tot=              0.8070
 Quadrupole moment (field-independent basis, Debye-Ang):
   XX=            -24.7974   YY=            -23.1971   ZZ=            -26.2269
   XY=              2.5207   XZ=             -0.0000   YZ=              0.0000

  Exact polarizability:  41.259   9.018  57.773  -0.000   0.000  34.066
 Approx polarizability:  49.212  13.186  62.966  -0.000   0.000  40.460

                      1                      2                      3
                     A'                     A"                     A"
 Frequencies --    199.3817               223.3687               357.2271
 Red. masses --      3.1154                 1.1839                 2.3664
 Frc consts  --      0.0730                 0.0348                 0.1779
 IR Inten    --      1.2444                 0.6564                 6.1283

                      4                      5                      6
                     A'                     A"                     A'
 Frequencies --    519.1482               649.7441               655.0371
 Red. masses --      4.0107                 1.2365                 1.2409
 Frc consts  --      0.6369                 0.3076                 0.3137
 IR Inten    --      6.3352                46.3862                44.8878

                      7                      8                      9
                     A"                     A'                     A'
 Frequencies --    794.9742               853.5805              1031.3699
 Red. masses --      1.1706                 2.7449                 2.6505
 Frc consts  --      0.4359                 1.1783                 1.6611
 IR Inten    --      0.8411                 0.0132                 0.3424

                     10                     11                     12
                     A'                     A"                     A"
 Frequencies --   1099.1594              1118.8485              1300.5981
 Red. masses --      1.7383                 1.4741                 1.1454
 Frc consts  --      1.2374                 1.0872                 1.1416
 IR Inten    --      2.9915                 0.7647                 0.0019

                     13                     14                     15
                     A'                     A'                     A'
 Frequencies --   1360.0265              1422.5483              1492.3640
 Red. masses --      1.4528                 1.2155                 1.0723
 Frc consts  --      1.5832                 1.4492                 1.4070
 IR Inten    --      8.5565                 1.5269                 3.0201

                     16                     17                     18
                     A"                     A'                     A'
 Frequencies --   1510.5169              1519.7727              2186.3827
 Red. masses --      1.0385                 1.0548                 6.1275
 Frc consts  --      1.3961                 1.4354                17.2577
 IR Inten    --      6.3357                 3.3546                 4.0890

                     19                     20                     21
                     A'                     A'                     A"
 Frequencies --   3054.2989              3061.9925              3084.8630
 Red. masses --      1.0589                 1.0343                 1.1022
 Frc consts  --      5.8200                 5.7133                 6.1802
 IR Inten    --     15.8931                26.0442                 5.2209

                     22                     23                     24
                     A'                     A"                     A'
 Frequencies --   3135.6060              3141.5272              3491.1139
 Red. masses --      1.1024                 1.1034                 1.1552
 Frc consts  --      6.3860                 6.4159                 8.2951
 IR Inten    --     27.3075                24.4917                59.9536

 - Thermochemistry -
 -------------------
 Temperature   298.150 Kelvin.  Pressure   1.00000 Atm.
 Atom     1 has atomic number  6 and mass  12.00000

 Molecular mass:    54.04695 amu.
 Principal axes and moments of inertia in atomic units:
                           1         2         3
     Eigenvalues --    65.87467 396.22019 439.94347
           X            0.19333   0.98113   0.00000
           Y            0.98113  -0.19333   0.00000
           Z            0.00000   0.00000   1.00000
 This molecule is an asymmetric top.
 Rotational symmetry number  1.
 Rotational temperatures (Kelvin)      1.31483     0.21860     0.19688
 Rotational constants (GHZ):          27.39659     4.55489     4.10221
 Zero-point vibrational energy     222884.9 (Joules/Mol)
                                   53.27078 (Kcal/Mol)
 Warning -- explicit consideration of   4 degrees of freedom as
           vibrations may cause significant error
 Vibrational temperatures:    286.87   321.38   513.97   746.94   934.84
          (Kelvin)            942.45  1143.79  1228.11  1483.91  1581.45
                             1609.77  1871.27  1956.77  2046.73  2147.18
                             2173.30  2186.61  3145.72  4394.45  4405.52
                             4438.43  4511.44  4519.96  5022.93

 Zero-point correction=                           0.084892 (Hartree/Particle)
 Thermal correction to Energy=                    0.089908
 Thermal correction to Enthalpy=                  0.090852
 Thermal correction to Gibbs Free Energy=         0.058034
 Sum of electronic and zero-point Energies=           -155.796780
 Sum of electronic and thermal Energies=              -155.791764
 Sum of electronic and thermal Enthalpies=            -155.790820
 Sum of electronic and thermal Free Energies=         -155.823638

                     E (Thermal)             CV                S
                      KCal/Mol        Cal/Mol-Kelvin    Cal/Mol-Kelvin
 Total                   56.418             16.929             69.073
 Electronic               0.000              0.000              0.000
 Translational            0.889              2.981             37.884
 Rotational               0.889              2.981             23.955
 Vibrational             54.641             10.967              7.234
 Vibration     1          0.638              1.841              2.139
 Vibration     2          0.649              1.805              1.932
 Vibration     3          0.732              1.560              1.134
 Vibration     4          0.874              1.208              0.612

 Optimization completed.
    -- Stationary point found.
 Normal termination of Gaussian 16 at Fri May 31 17:32:13 2019.
