 Gaussian 16, Revision B.01,
 Gaussian 16:  ES64L-G16RevB.01 20-Dec-2017

 ----------------------------------------------------------------------
 # opt=(maxcyc=500,modredundant) uB2PLYPD3/cc-pvtz scf=maxcyc=500 nosym
 m
 ----------------------------------------------------------------------

 -------------------
 Title Card Required
 -------------------
 Symbolic Z-matrix:
 Charge =  0 Multiplicity = 1

 SCF Done:  E(UB2PLYPD3) =  -155.665681287     A.U. after   12 cycles
 E2(B2PLYPD3) =    -0.2158555858D+00 E(B2PLYPD3) =    -0.15588153687250D+03
 SCF Done:  E(UB2PLYPD3) =  -155.665355287     A.U. after    9 cycles
 E2(B2PLYPD3) =    -0.2163136961D+00 E(B2PLYPD3) =    -0.15588166898345D+03
 SCF Done:  E(UB2PLYPD3) =  -155.665242341     A.U. after    9 cycles
 E2(B2PLYPD3) =    -0.2163732728D+00 E(B2PLYPD3) =    -0.15588161561334D+03
 SCF Done:  E(UB2PLYPD3) =  -155.665363584     A.U. after    9 cycles
 E2(B2PLYPD3) =    -0.2163083766D+00 E(B2PLYPD3) =    -0.15588167196107D+03
 SCF Done:  E(UB2PLYPD3) =  -155.665360481     A.U. after    6 cycles
 E2(B2PLYPD3) =    -0.2163116461D+00 E(B2PLYPD3) =    -0.15588167212673D+03
 Optimization completed.
    -- Stationary point found.
 SCF Done:  E(UB2PLYPD3) =  -155.665018633     A.U. after   10 cycles
 E2(B2PLYPD3) =    -0.2163194031D+00 E(B2PLYPD3) =    -0.15588133803657D+03
 SCF Done:  E(UB2PLYPD3) =  -155.665054268     A.U. after    9 cycles
 E2(B2PLYPD3) =    -0.2163270419D+00 E(B2PLYPD3) =    -0.15588138130986D+03
 SCF Done:  E(UB2PLYPD3) =  -155.665058907     A.U. after    7 cycles
 E2(B2PLYPD3) =    -0.2163236767D+00 E(B2PLYPD3) =    -0.15588138258391D+03
 Optimization completed.
 SCF Done:  E(UB2PLYPD3) =  -155.664167620     A.U. after    9 cycles
 E2(B2PLYPD3) =    -0.2163459034D+00 E(B2PLYPD3) =    -0.15588051352336D+03
 SCF Done:  E(UB2PLYPD3) =  -155.664198125     A.U. after    9 cycles
 E2(B2PLYPD3) =    -0.2163497316D+00 E(B2PLYPD3) =    -0.15588054785692D+03
 E2(B2PLYPD3) =    -0.2163504275D+00 E(B2PLYPD3) =    -0.15588054823238D+03
 E2(B2PLYPD3) =    -0.2163781753D+00 E(B2PLYPD3) =    -0.15587932466480D+03
 E2(B2PLYPD3) =    -0.2163793760D+00 E(B2PLYPD3) =    -0.15587934646898D+03
 E2(B2PLYPD3) =    -0.2164061939D+00 E(B2PLYPD3) =    -0.15587804716095D+03
 E2(B2PLYPD3) =    -0.2164027755D+00 E(B2PLYPD3) =    -0.15587806538642D+03
 E2(B2PLYPD3) =    -0.2164215867D+00 E(B2PLYPD3) =    -0.15587703351981D+03
 E2(B2PLYPD3) =    -0.2164138102D+00 E(B2PLYPD3) =    -0.15587706486560D+03
 E2(B2PLYPD3) =    -0.2164132355D+00 E(B2PLYPD3) =    -0.15587706524213D+03
 E2(B2PLYPD3) =    -0.2164206986D+00 E(B2PLYPD3) =    -0.15587662323934D+03
 E2(B2PLYPD3) =    -0.2164123716D+00 E(B2PLYPD3) =    -0.15587667382191D+03
 E2(B2PLYPD3) =    -0.2164138042D+00 E(B2PLYPD3) =    -0.15587667312191D+03
 E2(B2PLYPD3) =    -0.2164136417D+00 E(B2PLYPD3) =    -0.15587667419598D+03
 E2(B2PLYPD3) =    -0.2164081358D+00 E(B2PLYPD3) =    -0.15587698325397D+03
 E2(B2PLYPD3) =    -0.2164011882D+00 E(B2PLYPD3) =    -0.15587703611608D+03
 E2(B2PLYPD3) =    -0.2164010956D+00 E(B2PLYPD3) =    -0.15587703619339D+03
 E2(B2PLYPD3) =    -0.2163825474D+00 E(B2PLYPD3) =    -0.15587798647229D+03
 E2(B2PLYPD3) =    -0.2163824597D+00 E(B2PLYPD3) =    -0.15587801808510D+03
 E2(B2PLYPD3) =    -0.2163808045D+00 E(B2PLYPD3) =    -0.15587801876966D+03
 E2(B2PLYPD3) =    -0.2163809733D+00 E(B2PLYPD3) =    -0.15587801886374D+03
 E2(B2PLYPD3) =    -0.2163536668D+00 E(B2PLYPD3) =    -0.15587927765070D+03
 SCF Done:  E(UB2PLYPD3) =  -155.662940386     A.U. after    8 cycles
 E2(B2PLYPD3) =    -0.2163550612D+00 E(B2PLYPD3) =    -0.15587929544703D+03
 SCF Done:  E(UB2PLYPD3) =  -155.664157857     A.U. after    9 cycles
 E2(B2PLYPD3) =    -0.2163264431D+00 E(B2PLYPD3) =    -0.15588048430038D+03
 SCF Done:  E(UB2PLYPD3) =  -155.664176439     A.U. after    8 cycles
 E2(B2PLYPD3) =    -0.2163291342D+00 E(B2PLYPD3) =    -0.15588050557292D+03
 SCF Done:  E(UB2PLYPD3) =  -155.664177460     A.U. after    6 cycles
 E2(B2PLYPD3) =    -0.2163284705D+00 E(B2PLYPD3) =    -0.15588050593032D+03
 SCF Done:  E(UB2PLYPD3) =  -155.665015741     A.U. after    9 cycles
 E2(B2PLYPD3) =    -0.2163084055D+00 E(B2PLYPD3) =    -0.15588132414616D+03
 SCF Done:  E(UB2PLYPD3) =  -155.665047515     A.U. after    8 cycles
 E2(B2PLYPD3) =    -0.2163110253D+00 E(B2PLYPD3) =    -0.15588135854005D+03
 SCF Done:  E(UB2PLYPD3) =  -155.665047028     A.U. after    6 cycles
 E2(B2PLYPD3) =    -0.2163116634D+00 E(B2PLYPD3) =    -0.15588135869149D+03
    -- Stationary point found.
 SCF Done:  E(UB2PLYPD3) =  -155.665321662     A.U. after   10 cycles
 E2(B2PLYPD3) =    -0.2163052942D+00 E(B2PLYPD3) =    -0.15588162695575D+03
 SCF Done:  E(UB2PLYPD3) =  -155.665362003     A.U. after    8 cycles
 E2(B2PLYPD3) =    -0.2163089813D+00 E(B2PLYPD3) =    -0.15588167098408D+03
 SCF Done:  E(UB2PLYPD3) =  -155.665361144     A.U. after    7 cycles
 E2(B2PLYPD3) =    -0.2163104762D+00 E(B2PLYPD3) =    -0.15588167161993D+03
 Optimization completed.
    -- Stationary point found.

                          Input orientation:
 ---------------------------------------------------------------------
 Center     Atomic      Atomic             Coordinates (Angstroms)
 Number     Number       Type             X           Y           Z
 ---------------------------------------------------------------------
      1          6           0        1.676641    0.506118   -0.981089
      2          1           0        2.477970    0.666130   -1.655773
      3          6           0        0.770106    0.327169   -0.207168
      4          6           0       -0.346637    0.097412    0.704274
      5          1           0       -0.022119   -0.574873    1.500010
      6          1           0       -0.611124    1.040386    1.185241
      7          6           0       -1.573214   -0.487363   -0.003666
      8          1           0       -2.381532   -0.646627    0.708006
      9          1           0       -1.926026    0.187119   -0.780905
     10          1           0       -1.330443   -1.440304   -0.468928
 ---------------------------------------------------------------------

 Alpha  occ. eigenvalues --  -10.64015 -10.61667 -10.61230 -10.60291  -0.91923
 Alpha  occ. eigenvalues --   -0.83853  -0.74218  -0.60799  -0.54405  -0.53390
 Alpha  occ. eigenvalues --   -0.46664  -0.43945  -0.43066  -0.31813  -0.31735
 Alpha virt. eigenvalues --    0.07366   0.10235   0.10875   0.11653   0.12417
 Alpha virt. eigenvalues --    0.14090   0.15625   0.18368   0.22627   0.25050
 Alpha virt. eigenvalues --    0.28173   0.30950   0.31487   0.34627   0.35259

  Beta  occ. eigenvalues --  -10.64015 -10.61667 -10.61230 -10.60291  -0.91923
  Beta  occ. eigenvalues --   -0.83853  -0.74218  -0.60799  -0.54405  -0.53390
  Beta  occ. eigenvalues --   -0.46664  -0.43945  -0.43066  -0.31813  -0.31735
  Beta virt. eigenvalues --    0.07366   0.10235   0.10875   0.11653   0.12417
  Beta virt. eigenvalues --    0.14090   0.15625   0.18368   0.22627   0.25050
  Beta virt. eigenvalues --    0.28173   0.30950   0.31487   0.34627   0.35259

 Mulliken charges and spin densities:
               1          2
     1  C   -0.214017   0.000000
     2  H    0.166927  -0.000000
     3  C   -0.038208  -0.000000
     4  C   -0.165597   0.000000
     5  H    0.113558  -0.000000
     6  H    0.113553   0.000000
     7  C   -0.282635   0.000000
     8  H    0.097537  -0.000000
     9  H    0.104423  -0.000000
    10  H    0.104459  -0.000000
 Sum of Mulliken charges =  -0.00000   0.00000

 Dipole moment (field-independent basis, Debye):
    X=             -0.6657    Y=             -0.1600    Z=              0.4272  Tot=              0.8070
 Quadrupole moment (field-independent basis, Debye-Ang):
   XX=            -23.9062   YY=            -26.2281   ZZ=            -24.1486
   XY=              0.2915   XZ=             -2.5343   YZ=             -0.4801

 Normal termination of Gaussian 16 at Fri May 31 17:59:19 2019.
