 Gaussian 16, Revision B.01,
 Gaussian 16:  ES64L-G16RevB.01 20-Dec-2017

 ----------------------------------------------------------------------
 # opt=(maxcyc=500,modredundant) uB2PLYPD3/cc-pvtz scf=maxcyc=500 nosym
 m
 ----------------------------------------------------------------------

 -------------------
 Title Card Required
 -------------------
 Symbolic Z-matrix:
 Charge =  0 Multiplicity = 1

 SCF Done:  E(UB2PLYPD3) =  -156.901655083     A.U. after   11 cycles
 E2(B2PLYPD3) =    -0.2235635595D+00 E(B2PLYPD3) =    -0.15712521864285D+03
 SCF Done:  E(UB2PLYPD3) =  -156.901834175     A.U. after    9 cycles
 E2(B2PLYPD3) =    -0.2234498555D+00 E(B2PLYPD3) =    -0.15712528403053D+03
 SCF Done:  E(UB2PLYPD3) =  -156.901837276     A.U. after    6 cycles
 E2(B2PLYPD3) =    -0.2234479476D+00 E(B2PLYPD3) =    -0.15712528522313D+03
 SCF Done:  E(UB2PLYPD3) =  -156.901836875     A.U. after    7 cycles
 E2(B2PLYPD3) =    -0.2234484965D+00 E(B2PLYPD3) =    -0.15712528537158D+03
 Optimization completed.
    -- Stationary point found.
 SCF Done:  E(UB2PLYPD3) =  -156.901650502     A.U. after   10 cycles
 E2(B2PLYPD3) =    -0.2234280690D+00 E(B2PLYPD3) =    -0.15712507857104D+03
 SCF Done:  E(UB2PLYPD3) =  -156.901662501     A.U. after    9 cycles
 E2(B2PLYPD3) =    -0.2234333634D+00 E(B2PLYPD3) =    -0.15712509586464D+03
 SCF Done:  E(UB2PLYPD3) =  -156.901666740     A.U. after    7 cycles
 E2(B2PLYPD3) =    -0.2234303981D+00 E(B2PLYPD3) =    -0.15712509713792D+03
 Optimization completed.
 SCF Done:  E(UB2PLYPD3) =  -156.901090047     A.U. after   10 cycles
 E2(B2PLYPD3) =    -0.2234222259D+00 E(B2PLYPD3) =    -0.15712451227311D+03
 SCF Done:  E(UB2PLYPD3) =  -156.901104991     A.U. after    9 cycles
 E2(B2PLYPD3) =    -0.2234219629D+00 E(B2PLYPD3) =    -0.15712452695346D+03
 SCF Done:  E(UB2PLYPD3) =  -156.901104929     A.U. after    6 cycles
 E2(B2PLYPD3) =    -0.2234221823D+00 E(B2PLYPD3) =    -0.15712452711154D+03
 E2(B2PLYPD3) =    -0.2234224994D+00 E(B2PLYPD3) =    -0.15712369358243D+03
 E2(B2PLYPD3) =    -0.2234188771D+00 E(B2PLYPD3) =    -0.15712370343673D+03
 E2(B2PLYPD3) =    -0.2234223829D+00 E(B2PLYPD3) =    -0.15712281761499D+03
 E2(B2PLYPD3) =    -0.2234167784D+00 E(B2PLYPD3) =    -0.15712282699490D+03
 E2(B2PLYPD3) =    -0.2234183854D+00 E(B2PLYPD3) =    -0.15712212092892D+03
 E2(B2PLYPD3) =    -0.2234114893D+00 E(B2PLYPD3) =    -0.15712213673136D+03
 E2(B2PLYPD3) =    -0.2234104820D+00 E(B2PLYPD3) =    -0.15712213700690D+03
 E2(B2PLYPD3) =    -0.2234114531D+00 E(B2PLYPD3) =    -0.15712181887702D+03
 E2(B2PLYPD3) =    -0.2234070963D+00 E(B2PLYPD3) =    -0.15712184257896D+03
 E2(B2PLYPD3) =    -0.2234067483D+00 E(B2PLYPD3) =    -0.15712184278240D+03
 E2(B2PLYPD3) =    -0.2237162530D+00 E(B2PLYPD3) =    -0.15712175117493D+03
 E2(B2PLYPD3) =    -0.2237248366D+00 E(B2PLYPD3) =    -0.15712175202635D+03
 E2(B2PLYPD3) =    -0.2236730511D+00 E(B2PLYPD3) =    -0.15712163974233D+03
 E2(B2PLYPD3) =    -0.2237027734D+00 E(B2PLYPD3) =    -0.15712168320160D+03
 E2(B2PLYPD3) =    -0.2237093299D+00 E(B2PLYPD3) =    -0.15712168380328D+03
 E2(B2PLYPD3) =    -0.2236546345D+00 E(B2PLYPD3) =    -0.15712202288606D+03
 E2(B2PLYPD3) =    -0.2236771667D+00 E(B2PLYPD3) =    -0.15712205005397D+03
 E2(B2PLYPD3) =    -0.2236788860D+00 E(B2PLYPD3) =    -0.15712205023229D+03
 E2(B2PLYPD3) =    -0.2236236833D+00 E(B2PLYPD3) =    -0.15712273432276D+03
 E2(B2PLYPD3) =    -0.2236347434D+00 E(B2PLYPD3) =    -0.15712275075233D+03
 SCF Done:  E(UB2PLYPD3) =  -156.900031085     A.U. after   10 cycles
 E2(B2PLYPD3) =    -0.2235782499D+00 E(B2PLYPD3) =    -0.15712360933466D+03
 SCF Done:  E(UB2PLYPD3) =  -156.900039030     A.U. after    8 cycles
 E2(B2PLYPD3) =    -0.2235819049D+00 E(B2PLYPD3) =    -0.15712362093448D+03
 SCF Done:  E(UB2PLYPD3) =  -156.900914008     A.U. after   10 cycles
 E2(B2PLYPD3) =    -0.2235272185D+00 E(B2PLYPD3) =    -0.15712444122653D+03
 SCF Done:  E(UB2PLYPD3) =  -156.900925412     A.U. after    8 cycles
 E2(B2PLYPD3) =    -0.2235276957D+00 E(B2PLYPD3) =    -0.15712445310820D+03
 SCF Done:  E(UB2PLYPD3) =  -156.901556717     A.U. after    9 cycles
 E2(B2PLYPD3) =    -0.2234806470D+00 E(B2PLYPD3) =    -0.15712503736401D+03
 SCF Done:  E(UB2PLYPD3) =  -156.901572257     A.U. after    8 cycles
 E2(B2PLYPD3) =    -0.2234804969D+00 E(B2PLYPD3) =    -0.15712505275425D+03
 SCF Done:  E(UB2PLYPD3) =  -156.901570796     A.U. after    6 cycles
 E2(B2PLYPD3) =    -0.2234820893D+00 E(B2PLYPD3) =    -0.15712505288501D+03
    -- Stationary point found.
 SCF Done:  E(UB2PLYPD3) =  -156.901819873     A.U. after   10 cycles
 E2(B2PLYPD3) =    -0.2234465291D+00 E(B2PLYPD3) =    -0.15712526640170D+03
 SCF Done:  E(UB2PLYPD3) =  -156.901837623     A.U. after    8 cycles
 E2(B2PLYPD3) =    -0.2234474476D+00 E(B2PLYPD3) =    -0.15712528507032D+03
 SCF Done:  E(UB2PLYPD3) =  -156.901836241     A.U. after    6 cycles
 E2(B2PLYPD3) =    -0.2234489699D+00 E(B2PLYPD3) =    -0.15712528521078D+03
 Optimization completed.
    -- Stationary point found.

                          Input orientation:
 ---------------------------------------------------------------------
 Center     Atomic      Atomic             Coordinates (Angstroms)
 Number     Number       Type             X           Y           Z
 ---------------------------------------------------------------------
      1          6           0       -1.589248    0.376879    0.570037
      2          6           0       -0.604417    0.168146   -0.583228
      3          1           0       -2.617314    0.389956    0.210733
      4          1           0       -1.494965   -0.419870    1.306452
      5          1           0       -1.400236    1.322849    1.077491
      6          6           0        0.820413    0.191477   -0.123678
      7          1           0       -0.809187   -0.779211   -1.083622
      8          1           0       -0.755885    0.956709   -1.324874
      9          6           0        1.674328   -0.821875   -0.230407
     10          1           0        1.154314    1.112816    0.343420
     11          1           0        1.380276   -1.757930   -0.686887
     12          1           0        2.689511   -0.747796    0.131023
 ---------------------------------------------------------------------

 Alpha  occ. eigenvalues --  -10.61558 -10.61305 -10.60264 -10.60224  -0.91813
 Alpha  occ. eigenvalues --   -0.83758  -0.72373  -0.63831  -0.54434  -0.51192
 Alpha  occ. eigenvalues --   -0.49259  -0.44732  -0.43482  -0.40369  -0.39404
 Alpha  occ. eigenvalues --   -0.30195
 Alpha virt. eigenvalues --    0.06869   0.08975   0.11072   0.11561   0.13061
 Alpha virt. eigenvalues --    0.15766   0.16846   0.17074   0.18637   0.22862
 Alpha virt. eigenvalues --    0.26302   0.29957   0.31547   0.32723   0.33844

  Beta  occ. eigenvalues --  -10.61558 -10.61305 -10.60264 -10.60224  -0.91813
  Beta  occ. eigenvalues --   -0.83758  -0.72373  -0.63831  -0.54434  -0.51192
  Beta  occ. eigenvalues --   -0.49259  -0.44732  -0.43482  -0.40369  -0.39404
  Beta  occ. eigenvalues --   -0.30195
  Beta virt. eigenvalues --    0.06869   0.08975   0.11072   0.11561   0.13061
  Beta virt. eigenvalues --    0.15766   0.16846   0.17074   0.18637   0.22862
  Beta virt. eigenvalues --    0.26302   0.29957   0.31547   0.32723   0.33844

 Mulliken charges and spin densities:
               1          2
     1  C   -0.293107  -0.000000
     2  C   -0.143548  -0.000000
     3  H    0.099114   0.000000
     4  H    0.098606   0.000000
     5  H    0.091666  -0.000000
     6  C   -0.091575   0.000000
     7  H    0.090744   0.000000
     8  H    0.096112   0.000000
     9  C   -0.316925  -0.000000
    10  H    0.126620   0.000000
    11  H    0.118536   0.000000
    12  H    0.123757  -0.000000
 Sum of Mulliken charges =  -0.00000  -0.00000

 Dipole moment (field-independent basis, Debye):
    X=             -0.3400    Y=              0.1797    Z=             -0.0333  Tot=              0.3860
 Quadrupole moment (field-independent basis, Debye-Ang):
   XX=            -26.7465   YY=            -25.9593   ZZ=            -28.2983
   XY=             -0.0723   XZ=              0.9918   YZ=              0.7509

 Normal termination of Gaussian 16 at Fri May 31 20:21:14 2019.
