 Gaussian 16, Revision B.01,
 Gaussian 16:  ES64L-G16RevB.01 20-Dec-2017

 -----------------------------------------------
 # opt=maxcyc=500 freq=noraman uB2PLYPD3/cc-pvtz
 -----------------------------------------------

 -------------------
 Title Card Required
 -------------------
 Symbolic Z-matrix:
 Charge =  0 Multiplicity = 2

 SCF Done:  E(UB2PLYPD3) =  -156.222548437     A.U. after   19 cycles
 E2(B2PLYPD3) =    -0.2114012168D+00 E(B2PLYPD3) =    -0.15643394965343D+03
 SCF Done:  E(UB2PLYPD3) =  -156.227982086     A.U. after   15 cycles
 E2(B2PLYPD3) =    -0.2113247892D+00 E(B2PLYPD3) =    -0.15643930687541D+03
 SCF Done:  E(UB2PLYPD3) =  -156.228466173     A.U. after   13 cycles
 E2(B2PLYPD3) =    -0.2112944717D+00 E(B2PLYPD3) =    -0.15643976064449D+03
 SCF Done:  E(UB2PLYPD3) =  -156.228466710     A.U. after   12 cycles
 E2(B2PLYPD3) =    -0.2113207014D+00 E(B2PLYPD3) =    -0.15643978741174D+03
 SCF Done:  E(UB2PLYPD3) =  -156.228470696     A.U. after   10 cycles
 E2(B2PLYPD3) =    -0.2113201695D+00 E(B2PLYPD3) =    -0.15643979086582D+03
 Optimization completed.
    -- Stationary point found.
 Normal termination of Gaussian 16 at Fri May 31 18:36:45 2019.

 ----------------------------------------------------------------------
 #N Geom=AllCheck Guess=TCheck SCRF=Check GenChk UB2PLYPD3(FC)/CC-pVTZ
 Freq
 ----------------------------------------------------------------------

 Structure from the checkpoint file:  "/localscratch/339542/Gau-27507.chk"
 -------------------
 Title Card Required
 -------------------
 Charge =  0 Multiplicity = 2

                         Standard orientation:
 ---------------------------------------------------------------------
 Center     Atomic      Atomic             Coordinates (Angstroms)
 Number     Number       Type             X           Y           Z
 ---------------------------------------------------------------------
      1          6           0       -1.650723   -0.364037   -0.145259
      2          6           0       -0.491321    0.615020    0.045483
      3          1           0       -2.580087    0.167375   -0.345007
      4          1           0       -1.454853   -1.035283   -0.979929
      5          1           0       -1.798210   -0.973903    0.746021
      6          6           0        0.795506   -0.093492    0.372302
      7          1           0       -0.352413    1.216301   -0.851525
      8          1           0       -0.730130    1.302620    0.859906
      9          6           0        1.888448   -0.072856   -0.342008
     10          1           0        0.786918   -0.690181    1.288809
     11          1           0        2.877322   -0.494748   -0.301382
 ---------------------------------------------------------------------

 SCF Done:  E(UB2PLYPD3) =  -156.228470696     A.U. after    1 cycles
 E2(B2PLYPD3) =    -0.2113201745D+00 E(B2PLYPD3) =    -0.15643979087083D+03
 E2(B2PLYPD3) =    -0.2113201745D+00 E(B2PLYPD3) =    -0.15643979087083D+03

 The electronic state is 2-A.
 Alpha  occ. eigenvalues --  -10.63129 -10.62004 -10.61803 -10.60401  -0.92325
 Alpha  occ. eigenvalues --   -0.84418  -0.72616  -0.63115  -0.55739  -0.50977
 Alpha  occ. eigenvalues --   -0.48994  -0.44358  -0.42207  -0.40741  -0.31741
 Alpha  occ. eigenvalues --   -0.29662
 Alpha virt. eigenvalues --    0.06878   0.09192   0.11208   0.12466   0.13047
 Alpha virt. eigenvalues --    0.15895   0.16732   0.17515   0.22754   0.25674
 Alpha virt. eigenvalues --    0.28948   0.30276   0.31794   0.33479   0.34557

  Beta  occ. eigenvalues --  -10.62341 -10.61666 -10.61113 -10.60422  -0.91560
  Beta  occ. eigenvalues --   -0.82717  -0.71447  -0.60842  -0.54724  -0.50532
  Beta  occ. eigenvalues --   -0.47906  -0.44224  -0.41519  -0.40550  -0.30542
  Beta virt. eigenvalues --   -0.00127   0.07884   0.09688   0.11508   0.12690
  Beta virt. eigenvalues --    0.13265   0.16219   0.16769   0.17561   0.22858
  Beta virt. eigenvalues --    0.26123   0.29422   0.31270   0.32249   0.34434

 Mulliken charges and spin densities:
               1          2
     1  C   -0.294486  -0.002026
     2  C   -0.134831   0.040089
     3  H    0.100226  -0.001157
     4  H    0.100920   0.000631
     5  H    0.090233   0.000320
     6  C   -0.098001  -0.209847
     7  H    0.098564   0.004613
     8  H    0.099057  -0.003926
     9  C   -0.247260   1.076922
    10  H    0.130179   0.075590
    11  H    0.155399   0.018791
 Sum of Mulliken charges =  -0.00000   1.00000

 Dipole moment (field-independent basis, Debye):
    X=             -0.3364    Y=             -0.2413    Z=              0.5349  Tot=              0.6764
 Quadrupole moment (field-independent basis, Debye-Ang):
   XX=            -25.1466   YY=            -27.1105   ZZ=            -26.4962
   XY=             -1.6867   XZ=              0.2484   YZ=             -0.5841

  Exact polarizability:  61.362  -1.674  39.469  -5.333  -1.548  42.165
 Approx polarizability:  60.857  -1.425  44.713  -7.935  -1.345  50.212

                      1                      2                      3
                      A                      A                      A
 Frequencies --    109.9818               235.8459               333.5657
 Red. masses --      2.7055                 1.1029                 1.8742
 Frc consts  --      0.0193                 0.0361                 0.1229
 IR Inten    --      0.5306                 0.3275                 5.3085

                      4                      5                      6
                      A                      A                      A
 Frequencies --    421.2304               660.6064               776.9871
 Red. masses --      2.2885                 1.2620                 1.2438
 Frc consts  --      0.2392                 0.3245                 0.4424
 IR Inten    --      6.3010                55.6481                 8.9869

                      7                      8                      9
                      A                      A                      A
 Frequencies --    803.4891               841.9802               917.8783
 Red. masses --      1.3640                 1.4199                 1.5139
 Frc consts  --      0.5188                 0.5931                 0.7515
 IR Inten    --      8.8802                 0.8341                 5.6537

                     10                     11                     12
                      A                      A                      A
 Frequencies --   1035.3047              1100.7550              1148.0662
 Red. masses --      2.3884                 1.6957                 1.9669
 Frc consts  --      1.5083                 1.2106                 1.5274
 IR Inten    --      0.2287                 4.8777                 4.0606

                     13                     14                     15
                      A                      A                      A
 Frequencies --   1265.1204              1305.8096              1356.6171
 Red. masses --      1.2812                 1.1420                 1.4285
 Frc consts  --      1.2082                 1.1473                 1.5490
 IR Inten    --      1.0550                 0.3019                 6.2706

                     16                     17                     18
                      A                      A                      A
 Frequencies --   1419.5461              1497.2305              1511.5755
 Red. masses --      1.2243                 1.0678                 1.0397
 Frc consts  --      1.4536                 1.4103                 1.3997
 IR Inten    --      1.9070                 2.6395                 6.1737

                     19                     20                     21
                      A                      A                      A
 Frequencies --   1519.0982              1698.7222              3036.5297
 Red. masses --      1.0632                 6.8028                 1.0802
 Frc consts  --      1.4455                11.5659                 5.8685
 IR Inten    --      4.5513                 1.4029                12.7285

                     22                     23                     24
                      A                      A                      A
 Frequencies --   3046.7393              3050.9516              3099.1905
 Red. masses --      1.0653                 1.0351                 1.0978
 Frc consts  --      5.8261                 5.6768                 6.2124
 IR Inten    --     21.6056                28.3829                 2.5987

                     25                     26                     27
                      A                      A                      A
 Frequencies --   3122.8120              3128.7845              3269.1611
 Red. masses --      1.1010                 1.1032                 1.1049
 Frc consts  --      6.3259                 6.3627                 6.9576
 IR Inten    --     41.9253                32.1864                 0.4723

 - Thermochemistry -
 -------------------
 Temperature   298.150 Kelvin.  Pressure   1.00000 Atm.
 Atom     1 has atomic number  6 and mass  12.00000

 Molecular mass:    55.05478 amu.
 Principal axes and moments of inertia in atomic units:
                           1         2         3
     Eigenvalues --    73.23949 413.22872 428.03758
           X            0.99996  -0.00425   0.00815
           Y            0.00508   0.99454  -0.10425
           Z           -0.00766   0.10429   0.99452
 This molecule is an asymmetric top.
 Rotational symmetry number  1.
 Rotational temperatures (Kelvin)      1.18261     0.20960     0.20235
 Rotational constants (GHZ):          24.64164     4.36741     4.21631
 Zero-point vibrational energy     249502.6 (Joules/Mol)
                                   59.63256 (Kcal/Mol)
 Warning -- explicit consideration of   4 degrees of freedom as
           vibrations may cause significant error
 Vibrational temperatures:    158.24   339.33   479.93   606.06   950.47
          (Kelvin)           1117.91  1156.04  1211.42  1320.62  1489.57
                             1583.74  1651.81  1820.23  1878.77  1951.87
                             2042.41  2154.18  2174.82  2185.64  2444.08
                             4368.89  4383.58  4389.64  4459.04  4493.03
                             4501.62  4703.59

 Zero-point correction=                           0.095031 (Hartree/Particle)
 Thermal correction to Energy=                    0.100298
 Thermal correction to Enthalpy=                  0.101242
 Thermal correction to Gibbs Free Energy=         0.067009
 Sum of electronic and zero-point Energies=           -156.344760
 Sum of electronic and thermal Energies=              -156.339493
 Sum of electronic and thermal Enthalpies=            -156.338549
 Sum of electronic and thermal Free Energies=         -156.372781

                     E (Thermal)             CV                S
                      KCal/Mol        Cal/Mol-Kelvin    Cal/Mol-Kelvin
 Total                   62.938             17.671             72.049
 Electronic               0.000              0.000              1.377
 Translational            0.889              2.981             37.939
 Rotational               0.889              2.981             24.075
 Vibrational             61.160             11.710              8.657
 Vibration     1          0.606              1.941              3.269
 Vibration     2          0.655              1.786              1.834
 Vibration     3          0.715              1.608              1.243
 Vibration     4          0.784              1.424              0.888

 Optimization completed.
    -- Stationary point found.
 Normal termination of Gaussian 16 at Fri May 31 18:48:55 2019.
