 Gaussian 16, Revision B.01,
 Gaussian 16:  ES64L-G16RevB.01 20-Dec-2017

 -----------------------------------------------
 # opt=maxcyc=500 freq=noraman uB2PLYPD3/cc-pvtz
 -----------------------------------------------

 -------------------
 Title Card Required
 -------------------
 Symbolic Z-matrix:
 Charge =  0 Multiplicity = 1

 SCF Done:  E(UB2PLYPD3) =  -156.901655083     A.U. after   11 cycles
 E2(B2PLYPD3) =    -0.2235635595D+00 E(B2PLYPD3) =    -0.15712521864285D+03
 SCF Done:  E(UB2PLYPD3) =  -156.901832791     A.U. after    9 cycles
 E2(B2PLYPD3) =    -0.2234510999D+00 E(B2PLYPD3) =    -0.15712528389063D+03
 SCF Done:  E(UB2PLYPD3) =  -156.901837302     A.U. after    7 cycles
 E2(B2PLYPD3) =    -0.2234480836D+00 E(B2PLYPD3) =    -0.15712528538547D+03
 SCF Done:  E(UB2PLYPD3) =  -156.901837347     A.U. after    7 cycles
 E2(B2PLYPD3) =    -0.2234484166D+00 E(B2PLYPD3) =    -0.15712528576351D+03
 SCF Done:  E(UB2PLYPD3) =  -156.901837577     A.U. after    6 cycles
 E2(B2PLYPD3) =    -0.2234482734D+00 E(B2PLYPD3) =    -0.15712528585005D+03
 SCF Done:  E(UB2PLYPD3) =  -156.901837764     A.U. after    6 cycles
 E2(B2PLYPD3) =    -0.2234481007D+00 E(B2PLYPD3) =    -0.15712528586509D+03
 Optimization completed.
    -- Stationary point found.
 Normal termination of Gaussian 16 at Fri May 31 18:15:11 2019.

 ----------------------------------------------------------------------
 #N Geom=AllCheck Guess=TCheck SCRF=Check GenChk UB2PLYPD3(FC)/CC-pVTZ
 Freq
 ----------------------------------------------------------------------

 Structure from the checkpoint file:  "/localscratch/339542/Gau-25684.chk"
 -------------------
 Title Card Required
 -------------------
 Charge =  0 Multiplicity = 1

                         Standard orientation:
 ---------------------------------------------------------------------
 Center     Atomic      Atomic             Coordinates (Angstroms)
 Number     Number       Type             X           Y           Z
 ---------------------------------------------------------------------
      1          6           0       -1.713576   -0.252020   -0.294068
      2          6           0       -0.538514    0.525931    0.303847
      3          1           0       -2.623841    0.345950   -0.287963
      4          1           0       -1.501508   -0.540551   -1.322571
      5          1           0       -1.907468   -1.162197    0.273446
      6          6           0        0.716914   -0.288795    0.348742
      7          1           0       -0.360654    1.435460   -0.271429
      8          1           0       -0.800837    0.838954    1.317762
      9          6           0        1.847134    0.013783   -0.282527
     10          1           0        0.671075   -1.201024    0.935511
     11          1           0        1.933102    0.911675   -0.880395
     12          1           0        2.718381   -0.621657   -0.220322
 ---------------------------------------------------------------------

 SCF Done:  E(UB2PLYPD3) =  -156.901837764     A.U. after    1 cycles
 E2(B2PLYPD3) =    -0.2234480958D+00 E(B2PLYPD3) =    -0.15712528586015D+03
 E2(B2PLYPD3) =    -0.2234480958D+00 E(B2PLYPD3) =    -0.15712528586015D+03

 The electronic state is 1-A.
 Alpha  occ. eigenvalues --  -10.61558 -10.61305 -10.60265 -10.60224  -0.91813
 Alpha  occ. eigenvalues --   -0.83761  -0.72368  -0.63836  -0.54424  -0.51192
 Alpha  occ. eigenvalues --   -0.49279  -0.44717  -0.43475  -0.40378  -0.39407
 Alpha  occ. eigenvalues --   -0.30194
 Alpha virt. eigenvalues --    0.06873   0.08973   0.11072   0.11555   0.13068
 Alpha virt. eigenvalues --    0.15773   0.16836   0.17064   0.18648   0.22867
 Alpha virt. eigenvalues --    0.26310   0.29965   0.31541   0.32761   0.33836

  Beta  occ. eigenvalues --  -10.61558 -10.61305 -10.60265 -10.60224  -0.91813
  Beta  occ. eigenvalues --   -0.83761  -0.72368  -0.63836  -0.54424  -0.51192
  Beta  occ. eigenvalues --   -0.49279  -0.44717  -0.43475  -0.40378  -0.39407
  Beta  occ. eigenvalues --   -0.30194
  Beta virt. eigenvalues --    0.06873   0.08973   0.11072   0.11555   0.13068
  Beta virt. eigenvalues --    0.15773   0.16836   0.17064   0.18648   0.22867
  Beta virt. eigenvalues --    0.26310   0.29965   0.31541   0.32761   0.33836

 Mulliken charges and spin densities:
               1          2
     1  C   -0.293316  -0.000000
     2  C   -0.143355   0.000000
     3  H    0.099154  -0.000000
     4  H    0.098600   0.000000
     5  H    0.091672   0.000000
     6  C   -0.091574   0.000000
     7  H    0.090692  -0.000000
     8  H    0.096181  -0.000000
     9  C   -0.316832  -0.000000
    10  H    0.126495  -0.000000
    11  H    0.118530  -0.000000
    12  H    0.123753   0.000000
 Sum of Mulliken charges =  -0.00000   0.00000

 Dipole moment (field-independent basis, Debye):
    X=             -0.3691    Y=              0.0459    Z=              0.1038  Tot=              0.3862
 Quadrupole moment (field-independent basis, Debye-Ang):
   XX=            -26.8850   YY=            -26.6352   ZZ=            -27.4860
   XY=             -0.5369   XZ=             -0.8659   YZ=             -1.3089

  Exact polarizability:  61.971   0.590  43.081  -5.229  -2.913  41.420
 Approx polarizability:  62.473   1.782  49.437  -7.569  -3.705  49.852

                      1                      2                      3
                      A                      A                      A
 Frequencies --    108.4481               233.8472               319.2683
 Red. masses --      2.2628                 1.0881                 1.7838
 Frc consts  --      0.0157                 0.0351                 0.1071
 IR Inten    --      0.0621                 0.0301                 0.5530

                      4                      5                      6
                      A                      A                      A
 Frequencies --    434.9907               659.8764               802.3550
 Red. masses --      1.9736                 1.4838                 1.1728
 Frc consts  --      0.2200                 0.3807                 0.4448
 IR Inten    --      0.7209                 9.9844                 2.7126

                      7                      8                      9
                      A                      A                      A
 Frequencies --    868.0175               949.4754               994.9772
 Red. masses --      1.9421                 1.3401                 1.1920
 Frc consts  --      0.8621                 0.7118                 0.6952
 IR Inten    --      1.9878                41.6559                 1.9519

                     10                     11                     12
                      A                      A                      A
 Frequencies --   1031.7189              1042.8257              1103.4277
 Red. masses --      1.5312                 1.4881                 1.7179
 Frc consts  --      0.9603                 0.9535                 1.2323
 IR Inten    --      6.2279                 7.6267                 3.8172

                     13                     14                     15
                      A                      A                      A
 Frequencies --   1210.3957              1301.0273              1328.7315
 Red. masses --      1.9125                 1.1727                 1.2632
 Frc consts  --      1.6508                 1.1695                 1.3140
 IR Inten    --      0.3005                 0.1297                 1.0516

                     16                     17                     18
                      A                      A                      A
 Frequencies --   1354.6938              1419.0708              1467.2485
 Red. masses --      1.4186                 1.2263                 1.1875
 Frc consts  --      1.5339                 1.4550                 1.5062
 IR Inten    --      2.1464                 1.8610                 2.0521

                     19                     20                     21
                      A                      A                      A
 Frequencies --   1496.6682              1512.2521              1520.4799
 Red. masses --      1.0753                 1.0400                 1.0733
 Frc consts  --      1.4191                 1.4012                 1.4619
 IR Inten    --      3.6827                 5.9641                 5.1833

                     22                     23                     24
                      A                      A                      A
 Frequencies --   1706.9034              3036.2212              3049.9321
 Red. masses --      4.4291                 1.0628                 1.0346
 Frc consts  --      7.6030                 5.7727                 5.6703
 IR Inten    --     10.7706                24.8637                29.5645

                     25                     26                     27
                      A                      A                      A
 Frequencies --   3079.7831              3119.3344              3125.7496
 Red. masses --      1.0982                 1.1015                 1.1027
 Frc consts  --      6.1370                 6.3146                 6.3477
 IR Inten    --      7.9689                33.1004                32.3143

                     28                     29                     30
                      A                      A                      A
 Frequencies --   3142.9873              3155.1563              3240.8344
 Red. masses --      1.0788                 1.0703                 1.1156
 Frc consts  --      6.2791                 6.2774                 6.9038
 IR Inten    --     28.6071                 3.6135                16.2486

 - Thermochemistry -
 -------------------
 Temperature   298.150 Kelvin.  Pressure   1.00000 Atm.
 Atom     1 has atomic number  6 and mass  12.00000

 Molecular mass:    56.06260 amu.
 Principal axes and moments of inertia in atomic units:
                           1         2         3
     Eigenvalues --    79.78973 431.64146 441.56222
           X            0.99999   0.00075  -0.00427
           Y           -0.00195   0.95708  -0.28981
           Z            0.00387   0.28981   0.95708
 This molecule is an asymmetric top.
 Rotational symmetry number  1.
 Rotational temperatures (Kelvin)      1.08553     0.20066     0.19615
 Rotational constants (GHZ):          22.61872     4.18111     4.08717
 Zero-point vibrational energy     286007.4 (Joules/Mol)
                                   68.35740 (Kcal/Mol)
 Warning -- explicit consideration of   4 degrees of freedom as
           vibrations may cause significant error
 Vibrational temperatures:    156.03   336.45   459.36   625.85   949.41
          (Kelvin)           1154.41  1248.88  1366.08  1431.55  1484.41
                             1500.39  1587.59  1741.49  1871.89  1911.75
                             1949.10  2041.73  2111.04  2153.37  2175.79
                             2187.63  2455.85  4368.45  4388.17  4431.12
                             4488.03  4497.26  4522.06  4539.57  4662.84

 Zero-point correction=                           0.108934 (Hartree/Particle)
 Thermal correction to Energy=                    0.114183
 Thermal correction to Enthalpy=                  0.115127
 Thermal correction to Gibbs Free Energy=         0.081457
 Sum of electronic and zero-point Energies=           -157.016351
 Sum of electronic and thermal Energies=              -157.011103
 Sum of electronic and thermal Enthalpies=            -157.010159
 Sum of electronic and thermal Free Energies=         -157.043829

                     E (Thermal)             CV                S
                      KCal/Mol        Cal/Mol-Kelvin    Cal/Mol-Kelvin
 Total                   71.651             17.637             70.865
 Electronic               0.000              0.000              0.000
 Translational            0.889              2.981             37.993
 Rotational               0.889              2.981             24.234
 Vibrational             69.873             11.675              8.638
 Vibration     1          0.606              1.942              3.297
 Vibration     2          0.654              1.789              1.849
 Vibration     3          0.705              1.637              1.314
 Vibration     4          0.796              1.394              0.843

 Optimization completed.
    -- Stationary point found.
 Normal termination of Gaussian 16 at Fri May 31 18:30:25 2019.
