 Gaussian 16, Revision B.01,
 Gaussian 16:  ES64L-G16RevB.01 20-Dec-2017

 -----------------------------------------------
 # opt=maxcyc=500 freq=noraman uB2PLYPD3/cc-pvtz
 -----------------------------------------------

 -------------------
 Title Card Required
 -------------------
 Symbolic Z-matrix:
 Charge =  0 Multiplicity = 2

 SCF Done:  E(UB2PLYPD3) =  -156.228582895     A.U. after   19 cycles
 E2(B2PLYPD3) =    -0.2115608926D+00 E(B2PLYPD3) =    -0.15644014378753D+03
 SCF Done:  E(UB2PLYPD3) =  -156.233654334     A.U. after   15 cycles
 E2(B2PLYPD3) =    -0.2114586098D+00 E(B2PLYPD3) =    -0.15644511294355D+03
 SCF Done:  E(UB2PLYPD3) =  -156.234489435     A.U. after   14 cycles
 E2(B2PLYPD3) =    -0.2114188721D+00 E(B2PLYPD3) =    -0.15644590830705D+03
 SCF Done:  E(UB2PLYPD3) =  -156.234549680     A.U. after   14 cycles
 E2(B2PLYPD3) =    -0.2114398381D+00 E(B2PLYPD3) =    -0.15644598951834D+03
 SCF Done:  E(UB2PLYPD3) =  -156.234561184     A.U. after   11 cycles
 E2(B2PLYPD3) =    -0.2114379036D+00 E(B2PLYPD3) =    -0.15644599908784D+03
 SCF Done:  E(UB2PLYPD3) =  -156.234564775     A.U. after    9 cycles
 E2(B2PLYPD3) =    -0.2114352159D+00 E(B2PLYPD3) =    -0.15644599999142D+03
 SCF Done:  E(UB2PLYPD3) =  -156.234566486     A.U. after    8 cycles
 E2(B2PLYPD3) =    -0.2114337162D+00 E(B2PLYPD3) =    -0.15644600020215D+03
 SCF Done:  E(UB2PLYPD3) =  -156.234567067     A.U. after    8 cycles
 E2(B2PLYPD3) =    -0.2114332220D+00 E(B2PLYPD3) =    -0.15644600028948D+03
 Optimization completed.
    -- Stationary point found.
 Normal termination of Gaussian 16 at Fri May 31 19:19:15 2019.

 ----------------------------------------------------------------------
 #N Geom=AllCheck Guess=TCheck SCRF=Check GenChk UB2PLYPD3(FC)/CC-pVTZ
 Freq
 ----------------------------------------------------------------------

 Structure from the checkpoint file:  "/localscratch/339542/Gau-7649.chk"
 -------------------
 Title Card Required
 -------------------
 Charge =  0 Multiplicity = 2

                         Standard orientation:
 ---------------------------------------------------------------------
 Center     Atomic      Atomic             Coordinates (Angstroms)
 Number     Number       Type             X           Y           Z
 ---------------------------------------------------------------------
      1          6           0        1.702720   -0.406013    0.082072
      2          6           0        0.557541    0.605508   -0.025556
      3          1           0        2.632521    0.095138    0.345747
      4          1           0        1.486214   -1.152146    0.844153
      5          1           0        1.849422   -0.924020   -0.863657
      6          6           0       -0.726928   -0.015353   -0.378650
      7          1           0        0.436540    1.133878    0.929700
      8          1           0        0.809018    1.365050   -0.768388
      9          6           0       -1.921743   -0.185849    0.123712
     10          1           0       -2.699497   -0.727786   -0.398224
     11          1           0       -2.183764    0.220128    1.101201
 ---------------------------------------------------------------------

 SCF Done:  E(UB2PLYPD3) =  -156.234567067     A.U. after    1 cycles
 E2(B2PLYPD3) =    -0.2114332240D+00 E(B2PLYPD3) =    -0.15644600029152D+03
 E2(B2PLYPD3) =    -0.2114332240D+00 E(B2PLYPD3) =    -0.15644600029152D+03

 The electronic state is 2-A.
 Alpha  occ. eigenvalues --  -10.63564 -10.62921 -10.60840 -10.60500  -0.92773
 Alpha  occ. eigenvalues --   -0.84707  -0.73807  -0.61388  -0.54189  -0.52320
 Alpha  occ. eigenvalues --   -0.49996  -0.45121  -0.43663  -0.41956  -0.31085
 Alpha  occ. eigenvalues --   -0.27891
 Alpha virt. eigenvalues --    0.06942   0.09169   0.11340   0.12781   0.13211
 Alpha virt. eigenvalues --    0.15845   0.16562   0.17411   0.22635   0.23058
 Alpha virt. eigenvalues --    0.29539   0.30777   0.31556   0.34894   0.36694

  Beta  occ. eigenvalues --  -10.62927 -10.61585 -10.60807 -10.60794  -0.90862
  Beta  occ. eigenvalues --   -0.83773  -0.73444  -0.58783  -0.52551  -0.51391
  Beta  occ. eigenvalues --   -0.48602  -0.44586  -0.42862  -0.41503  -0.30599
  Beta virt. eigenvalues --    0.00600   0.07723   0.10183   0.11660   0.12808
  Beta virt. eigenvalues --    0.13461   0.15890   0.16945   0.17722   0.22961
  Beta virt. eigenvalues --    0.23665   0.29618   0.31067   0.31740   0.35073

 Mulliken charges and spin densities:
               1          2
     1  C   -0.285610   0.008021
     2  C   -0.146497  -0.035644
     3  H    0.098453  -0.000182
     4  H    0.099966   0.000009
     5  H    0.100969   0.003477
     6  C    0.017988   1.035238
     7  H    0.096877   0.062893
     8  H    0.108465   0.007341
     9  C   -0.349985  -0.200416
    10  H    0.136530   0.035810
    11  H    0.122843   0.083453
 Sum of Mulliken charges =  -0.00000   1.00000

 Dipole moment (field-independent basis, Debye):
    X=              0.5928    Y=              0.4015    Z=              0.4886  Tot=              0.8668
 Quadrupole moment (field-independent basis, Debye-Ang):
   XX=            -25.3101   YY=            -27.0718   ZZ=            -26.3919
   XY=              0.8936   XZ=             -0.8207   YZ=              0.5111

  Exact polarizability:  64.408   3.246  39.765  -3.679   1.502  41.423
 Approx polarizability:  63.497   3.805  45.076  -5.661   0.852  48.577

                      1                      2                      3
                      A                      A                      A
 Frequencies --    112.0794               218.8429               295.5608
 Red. masses --      2.5420                 1.1715                 1.6367
 Frc consts  --      0.0188                 0.0331                 0.0842
 IR Inten    --      2.0562                 0.2059                 1.3022

                      4                      5                      6
                      A                      A                      A
 Frequencies --    371.5707               565.0995               787.6195
 Red. masses --      1.7462                 1.7804                 1.1690
 Frc consts  --      0.1420                 0.3350                 0.4273
 IR Inten    --      2.2809                 6.6577                 1.2074

                      7                      8                      9
                      A                      A                      A
 Frequencies --    843.4870               896.2882               964.4891
 Red. masses --      2.2905                 1.3254                 1.3013
 Frc consts  --      0.9602                 0.6273                 0.7132
 IR Inten    --      2.1754                45.4567                 0.3116

                     10                     11                     12
                      A                      A                      A
 Frequencies --   1035.1903              1099.1303              1137.9424
 Red. masses --      2.6762                 1.6709                 1.8168
 Frc consts  --      1.6897                 1.1893                 1.3861
 IR Inten    --      1.3507                 2.7543                 2.8956

                     13                     14                     15
                      A                      A                      A
 Frequencies --   1283.4610              1342.1228              1419.5867
 Red. masses --      1.1846                 1.4041                 1.2169
 Frc consts  --      1.1497                 1.4901                 1.4449
 IR Inten    --      1.4710                 3.5689                 2.0052

                     16                     17                     18
                      A                      A                      A
 Frequencies --   1429.7179              1471.6189              1510.6217
 Red. masses --      1.1289                 1.0791                 1.0387
 Frc consts  --      1.3596                 1.3768                 1.3965
 IR Inten    --      4.5936                 4.5747                 6.6108

                     19                     20                     21
                      A                      A                      A
 Frequencies --   1518.6317              1754.1136              2979.3607
 Red. masses --      1.0501                 8.4427                 1.0691
 Frc consts  --      1.4269                15.3055                 5.5913
 IR Inten    --      3.5124                18.0639                25.1940

                     22                     23                     24
                      A                      A                      A
 Frequencies --   3059.4146              3062.7970              3064.1784
 Red. masses --      1.0355                 1.0687                 1.0835
 Frc consts  --      5.7103                 5.9068                 5.9938
 IR Inten    --     28.1932                13.1668                 8.2040

                     25                     26                     27
                      A                      A                      A
 Frequencies --   3132.5791              3135.8855              3186.5044
 Red. masses --      1.1025                 1.1030                 1.1006
 Frc consts  --      6.3742                 6.3907                 6.5842
 IR Inten    --     26.3728                25.4946                 4.1418

 - Thermochemistry -
 -------------------
 Temperature   298.150 Kelvin.  Pressure   1.00000 Atm.
 Atom     1 has atomic number  6 and mass  12.00000

 Molecular mass:    55.05478 amu.
 Principal axes and moments of inertia in atomic units:
                           1         2         3
     Eigenvalues --    68.41089 432.54158 455.42944
           X            0.99996  -0.00029  -0.00853
           Y            0.00081   0.99810   0.06154
           Z            0.00850  -0.06155   0.99807
 This molecule is an asymmetric top.
 Rotational symmetry number  1.
 Rotational temperatures (Kelvin)      1.26608     0.20024     0.19018
 Rotational constants (GHZ):          26.38090     4.17241     3.96272
 Zero-point vibrational energy     249289.2 (Joules/Mol)
                                   59.58154 (Kcal/Mol)
 Warning -- explicit consideration of   5 degrees of freedom as
           vibrations may cause significant error
 Vibrational temperatures:    161.26   314.87   425.25   534.61   813.05
          (Kelvin)           1133.21  1213.59  1289.56  1387.68  1489.41
                             1581.40  1637.25  1846.61  1931.02  2042.47
                             2057.05  2117.33  2173.45  2184.97  2523.78
                             4286.64  4401.82  4406.68  4408.67  4507.08
                             4511.84  4584.67

 Zero-point correction=                           0.094949 (Hartree/Particle)
 Thermal correction to Energy=                    0.100345
 Thermal correction to Enthalpy=                  0.101289
 Thermal correction to Gibbs Free Energy=         0.066783
 Sum of electronic and zero-point Energies=           -156.351051
 Sum of electronic and thermal Energies=              -156.345655
 Sum of electronic and thermal Enthalpies=            -156.344711
 Sum of electronic and thermal Free Energies=         -156.379217

                     E (Thermal)             CV                S
                      KCal/Mol        Cal/Mol-Kelvin    Cal/Mol-Kelvin
 Total                   62.967             17.814             72.624
 Electronic               0.000              0.000              1.377
 Translational            0.889              2.981             37.939
 Rotational               0.889              2.981             24.114
 Vibrational             61.190             11.853              9.193
 Vibration     1          0.607              1.939              3.233
 Vibration     2          0.647              1.812              1.969
 Vibration     3          0.690              1.682              1.442
 Vibration     4          0.743              1.531              1.073
 Vibration     5          0.921              1.107              0.514

                           ! Non-Optimized Parameters !
 Normal termination of Gaussian 16 at Fri May 31 19:31:41 2019.
