 Gaussian 16, Revision B.01,
 Gaussian 16:  ES64L-G16RevB.01 20-Dec-2017

 ----------------------------------------------------------------------
 # opt=(maxcyc=500,modredundant) uB2PLYPD3/cc-pvtz scf=maxcyc=500 nosym
 m
 ----------------------------------------------------------------------

 -------------------
 Title Card Required
 -------------------
 Symbolic Z-matrix:
 Charge =  0 Multiplicity = 1

 SCF Done:  E(UB2PLYPD3) =  -156.901655083     A.U. after   11 cycles
 E2(B2PLYPD3) =    -0.2235635595D+00 E(B2PLYPD3) =    -0.15712521864285D+03
 SCF Done:  E(UB2PLYPD3) =  -156.901833294     A.U. after    9 cycles
 E2(B2PLYPD3) =    -0.2234507627D+00 E(B2PLYPD3) =    -0.15712528405668D+03
 SCF Done:  E(UB2PLYPD3) =  -156.901837357     A.U. after    7 cycles
 E2(B2PLYPD3) =    -0.2234481335D+00 E(B2PLYPD3) =    -0.15712528549003D+03
 SCF Done:  E(UB2PLYPD3) =  -156.901837206     A.U. after    7 cycles
 E2(B2PLYPD3) =    -0.2234486932D+00 E(B2PLYPD3) =    -0.15712528589947D+03
 SCF Done:  E(UB2PLYPD3) =  -156.901837508     A.U. after    6 cycles
 E2(B2PLYPD3) =    -0.2234484664D+00 E(B2PLYPD3) =    -0.15712528597423D+03
 SCF Done:  E(UB2PLYPD3) =  -156.901837776     A.U. after    6 cycles
 E2(B2PLYPD3) =    -0.2234482291D+00 E(B2PLYPD3) =    -0.15712528600532D+03
 Optimization completed.
    -- Stationary point found.
 SCF Done:  E(UB2PLYPD3) =  -156.901495161     A.U. after    9 cycles
 E2(B2PLYPD3) =    -0.2234544302D+00 E(B2PLYPD3) =    -0.15712494959166D+03
 SCF Done:  E(UB2PLYPD3) =  -156.901554909     A.U. after    9 cycles
 E2(B2PLYPD3) =    -0.2234402803D+00 E(B2PLYPD3) =    -0.15712499518966D+03
 SCF Done:  E(UB2PLYPD3) =  -156.901555634     A.U. after    7 cycles
 E2(B2PLYPD3) =    -0.2234415839D+00 E(B2PLYPD3) =    -0.15712499721821D+03
 Optimization completed.
 SCF Done:  E(UB2PLYPD3) =  -156.900685428     A.U. after    9 cycles
 E2(B2PLYPD3) =    -0.2234640416D+00 E(B2PLYPD3) =    -0.15712414946915D+03
 E2(B2PLYPD3) =    -0.2234550311D+00 E(B2PLYPD3) =    -0.15712418702283D+03
 E2(B2PLYPD3) =    -0.2234551028D+00 E(B2PLYPD3) =    -0.15712418742415D+03
 E2(B2PLYPD3) =    -0.2234865335D+00 E(B2PLYPD3) =    -0.15712300471160D+03
 E2(B2PLYPD3) =    -0.2234814399D+00 E(B2PLYPD3) =    -0.15712302882993D+03
 E2(B2PLYPD3) =    -0.2235128977D+00 E(B2PLYPD3) =    -0.15712177532857D+03
 E2(B2PLYPD3) =    -0.2235104238D+00 E(B2PLYPD3) =    -0.15712179222617D+03
 E2(B2PLYPD3) =    -0.2235336095D+00 E(B2PLYPD3) =    -0.15712078793696D+03
 E2(B2PLYPD3) =    -0.2235328303D+00 E(B2PLYPD3) =    -0.15712081355400D+03
 E2(B2PLYPD3) =    -0.2235330122D+00 E(B2PLYPD3) =    -0.15712081395941D+03
 E2(B2PLYPD3) =    -0.2235432296D+00 E(B2PLYPD3) =    -0.15712036553826D+03
 E2(B2PLYPD3) =    -0.2235192736D+00 E(B2PLYPD3) =    -0.15712076124181D+03
 E2(B2PLYPD3) =    -0.2235232387D+00 E(B2PLYPD3) =    -0.15712079280018D+03
 E2(B2PLYPD3) =    -0.2235241976D+00 E(B2PLYPD3) =    -0.15712079323834D+03
 E2(B2PLYPD3) =    -0.2235342880D+00 E(B2PLYPD3) =    -0.15712035759804D+03
 E2(B2PLYPD3) =    -0.2235474015D+00 E(B2PLYPD3) =    -0.15712040947651D+03
 E2(B2PLYPD3) =    -0.2235431395D+00 E(B2PLYPD3) =    -0.15712070902005D+03
 E2(B2PLYPD3) =    -0.2235619469D+00 E(B2PLYPD3) =    -0.15712076313434D+03
 E2(B2PLYPD3) =    -0.2235619696D+00 E(B2PLYPD3) =    -0.15712076345925D+03
 E2(B2PLYPD3) =    -0.2235448361D+00 E(B2PLYPD3) =    -0.15712169530162D+03
 E2(B2PLYPD3) =    -0.2235619653D+00 E(B2PLYPD3) =    -0.15712172998393D+03
 SCF Done:  E(UB2PLYPD3) =  -156.898168296     A.U. after    6 cycles
 E2(B2PLYPD3) =    -0.2235618277D+00 E(B2PLYPD3) =    -0.15712173012413D+03
 SCF Done:  E(UB2PLYPD3) =  -156.899431084     A.U. after    9 cycles
 E2(B2PLYPD3) =    -0.2235355603D+00 E(B2PLYPD3) =    -0.15712296664436D+03
 SCF Done:  E(UB2PLYPD3) =  -156.899441752     A.U. after    9 cycles
 E2(B2PLYPD3) =    -0.2235430845D+00 E(B2PLYPD3) =    -0.15712298483625D+03
 SCF Done:  E(UB2PLYPD3) =  -156.900632588     A.U. after   10 cycles
 E2(B2PLYPD3) =    -0.2235134002D+00 E(B2PLYPD3) =    -0.15712414598821D+03
 SCF Done:  E(UB2PLYPD3) =  -156.900657773     A.U. after    8 cycles
 E2(B2PLYPD3) =    -0.2235090254D+00 E(B2PLYPD3) =    -0.15712416679822D+03
 SCF Done:  E(UB2PLYPD3) =  -156.900657677     A.U. after    6 cycles
 E2(B2PLYPD3) =    -0.2235095354D+00 E(B2PLYPD3) =    -0.15712416721229D+03
 SCF Done:  E(UB2PLYPD3) =  -156.901470846     A.U. after    9 cycles
 E2(B2PLYPD3) =    -0.2234851688D+00 E(B2PLYPD3) =    -0.15712495601500D+03
 SCF Done:  E(UB2PLYPD3) =  -156.901517252     A.U. after    8 cycles
 E2(B2PLYPD3) =    -0.2234737988D+00 E(B2PLYPD3) =    -0.15712499105092D+03
    -- Stationary point found.
 SCF Done:  E(UB2PLYPD3) =  -156.901775872     A.U. after    9 cycles
 E2(B2PLYPD3) =    -0.2234628577D+00 E(B2PLYPD3) =    -0.15712523872998D+03
 SCF Done:  E(UB2PLYPD3) =  -156.901837197     A.U. after    8 cycles
 E2(B2PLYPD3) =    -0.2234483600D+00 E(B2PLYPD3) =    -0.15712528555742D+03
 Optimization completed.
    -- Stationary point found.

                          Input orientation:
 ---------------------------------------------------------------------
 Center     Atomic      Atomic             Coordinates (Angstroms)
 Number     Number       Type             X           Y           Z
 ---------------------------------------------------------------------
      1          6           0       -1.716982   -0.318884   -0.172381
      2          6           0       -0.422619   -0.168271    0.631704
      3          1           0       -2.588478   -0.310253    0.480710
      4          1           0       -1.821076    0.492868   -0.890866
      5          1           0       -1.724024   -1.256929   -0.727357
      6          6           0        0.794888   -0.222331   -0.238144
      7          1           0       -0.432440    0.772177    1.184167
      8          1           0       -0.371173   -0.970056    1.372788
      9          6           0        1.681582    0.758987   -0.373306
     10          1           0        0.934224   -1.137768   -0.804809
     11          1           0        1.577329    1.688588    0.170748
     12          1           0        2.536359    0.664021   -1.026795
 ---------------------------------------------------------------------

 Alpha  occ. eigenvalues --  -10.61559 -10.61308 -10.60266 -10.60224  -0.91810
 Alpha  occ. eigenvalues --   -0.83757  -0.72372  -0.63836  -0.54422  -0.51190
 Alpha  occ. eigenvalues --   -0.49277  -0.44718  -0.43472  -0.40381  -0.39410
 Alpha  occ. eigenvalues --   -0.30193
 Alpha virt. eigenvalues --    0.06873   0.08973   0.11072   0.11554   0.13068
 Alpha virt. eigenvalues --    0.15772   0.16839   0.17065   0.18647   0.22866
 Alpha virt. eigenvalues --    0.26309   0.29967   0.31540   0.32758   0.33838

  Beta  occ. eigenvalues --  -10.61559 -10.61308 -10.60266 -10.60224  -0.91810
  Beta  occ. eigenvalues --   -0.83757  -0.72372  -0.63836  -0.54422  -0.51190
  Beta  occ. eigenvalues --   -0.49277  -0.44718  -0.43472  -0.40381  -0.39410
  Beta  occ. eigenvalues --   -0.30193
  Beta virt. eigenvalues --    0.06873   0.08973   0.11072   0.11554   0.13068
  Beta virt. eigenvalues --    0.15772   0.16839   0.17065   0.18647   0.22866
  Beta virt. eigenvalues --    0.26309   0.29967   0.31540   0.32758   0.33838

 Mulliken charges and spin densities:
               1          2
     1  C   -0.293397  -0.000000
     2  C   -0.143436   0.000000
     3  H    0.099186  -0.000000
     4  H    0.098617   0.000000
     5  H    0.091706   0.000000
     6  C   -0.091540  -0.000000
     7  H    0.090715   0.000000
     8  H    0.096211  -0.000000
     9  C   -0.316849   0.000000
    10  H    0.126494   0.000000
    11  H    0.118537   0.000000
    12  H    0.123756  -0.000000
 Sum of Mulliken charges =  -0.00000  -0.00000

 Dipole moment (field-independent basis, Debye):
    X=             -0.3214    Y=             -0.1694    Z=              0.1309  Tot=              0.3862
 Quadrupole moment (field-independent basis, Debye-Ang):
   XX=            -27.4213   YY=            -26.0205   ZZ=            -27.5781
   XY=              0.3814   XZ=             -1.1887   YZ=              0.7933

 Normal termination of Gaussian 16 at Fri May 31 22:33:58 2019.
