 Gaussian 16, Revision B.01,
 Gaussian 16:  ES64L-G16RevB.01 20-Dec-2017

 -----------------------------------------------
 # opt=maxcyc=500 freq=noraman uB2PLYPD3/cc-pvtz
 -----------------------------------------------

 -------------------
 Title Card Required
 -------------------
 Symbolic Z-matrix:
 Charge =  0 Multiplicity = 2

 SCF Done:  E(UB2PLYPD3) =  -156.223045526     A.U. after   20 cycles
 E2(B2PLYPD3) =    -0.2116805425D+00 E(B2PLYPD3) =    -0.15643472606803D+03
 SCF Done:  E(UB2PLYPD3) =  -156.227446127     A.U. after   14 cycles
 E2(B2PLYPD3) =    -0.2114297659D+00 E(B2PLYPD3) =    -0.15643887589246D+03
 SCF Done:  E(UB2PLYPD3) =  -156.227995708     A.U. after   13 cycles
 E2(B2PLYPD3) =    -0.2113504920D+00 E(B2PLYPD3) =    -0.15643934619955D+03
 SCF Done:  E(UB2PLYPD3) =  -156.227992317     A.U. after   11 cycles
 E2(B2PLYPD3) =    -0.2113714582D+00 E(B2PLYPD3) =    -0.15643936377556D+03
 SCF Done:  E(UB2PLYPD3) =  -156.227996889     A.U. after   11 cycles
 E2(B2PLYPD3) =    -0.2113696808D+00 E(B2PLYPD3) =    -0.15643936656945D+03
 SCF Done:  E(UB2PLYPD3) =  -156.227998493     A.U. after    9 cycles
 E2(B2PLYPD3) =    -0.2113684221D+00 E(B2PLYPD3) =    -0.15643936691492D+03
 Optimization completed.
    -- Stationary point found.
 Normal termination of Gaussian 16 at Fri May 31 18:56:36 2019.

 ----------------------------------------------------------------------
 #N Geom=AllCheck Guess=TCheck SCRF=Check GenChk UB2PLYPD3(FC)/CC-pVTZ
 Freq
 ----------------------------------------------------------------------

 Structure from the checkpoint file:  "/localscratch/339542/Gau-28889.chk"
 -------------------
 Title Card Required
 -------------------
 Charge =  0 Multiplicity = 2

                         Standard orientation:
 ---------------------------------------------------------------------
 Center     Atomic      Atomic             Coordinates (Angstroms)
 Number     Number       Type             X           Y           Z
 ---------------------------------------------------------------------
      1          6           0       -1.640757   -0.212669   -0.294629
      2          6           0       -0.446732    0.523494    0.313065
      3          1           0       -2.537069    0.405446   -0.262284
      4          1           0       -1.444411   -0.475780   -1.332796
      5          1           0       -1.848887   -1.133876    0.249179
      6          6           0        0.798300   -0.337017    0.324974
      7          1           0       -0.249249    1.442709   -0.237290
      8          1           0       -0.679942    0.809787    1.341080
      9          6           0        1.912087   -0.059977   -0.298565
     10          1           0        0.722913   -1.261533    0.893059
     11          1           0        2.299256    0.730262   -0.920016
 ---------------------------------------------------------------------

 SCF Done:  E(UB2PLYPD3) =  -156.227998493     A.U. after    1 cycles
 E2(B2PLYPD3) =    -0.2113684173D+00 E(B2PLYPD3) =    -0.15643936691017D+03
 E2(B2PLYPD3) =    -0.2113684173D+00 E(B2PLYPD3) =    -0.15643936691017D+03

 The electronic state is 2-A.
 Alpha  occ. eigenvalues --  -10.63080 -10.62218 -10.61905 -10.60581  -0.92447
 Alpha  occ. eigenvalues --   -0.84401  -0.72449  -0.64354  -0.53836  -0.52293
 Alpha  occ. eigenvalues --   -0.47997  -0.45181  -0.42939  -0.40917  -0.31726
 Alpha  occ. eigenvalues --   -0.29548
 Alpha virt. eigenvalues --    0.06856   0.08992   0.10601   0.12479   0.13292
 Alpha virt. eigenvalues --    0.15678   0.16601   0.17265   0.22664   0.25597
 Alpha virt. eigenvalues --    0.29628   0.31317   0.31796   0.34371   0.35074

  Beta  occ. eigenvalues --  -10.62252 -10.61982 -10.61035 -10.60600  -0.91612
  Beta  occ. eigenvalues --   -0.82672  -0.71038  -0.62566  -0.52983  -0.51531
  Beta  occ. eigenvalues --   -0.46880  -0.44710  -0.42132  -0.40702  -0.30508
  Beta virt. eigenvalues --    0.00215   0.07799   0.09291   0.10965   0.12496
  Beta virt. eigenvalues --    0.13543   0.15940   0.16714   0.17344   0.22785
  Beta virt. eigenvalues --    0.26116   0.29733   0.31479   0.32824   0.34927

 Mulliken charges and spin densities:
               1          2
     1  C   -0.290808  -0.001811
     2  C   -0.144258   0.074565
     3  H    0.100150   0.000727
     4  H    0.100287   0.000409
     5  H    0.092835   0.000115
     6  C   -0.102557  -0.220132
     7  H    0.094026  -0.003223
     8  H    0.100309  -0.001592
     9  C   -0.245459   1.094928
    10  H    0.141214   0.038014
    11  H    0.154262   0.018001
 Sum of Mulliken charges =  -0.00000   1.00000

 Dipole moment (field-independent basis, Debye):
    X=             -0.8870    Y=              0.5293    Z=              0.0141  Tot=              1.0330
 Quadrupole moment (field-independent basis, Debye-Ang):
   XX=            -28.0702   YY=            -25.9594   ZZ=            -26.3659
   XY=              1.1701   XZ=             -1.2542   YZ=             -1.5372

  Exact polarizability:  60.077   1.486  41.620  -5.640  -2.576  40.967
 Approx polarizability:  60.307   2.518  47.116  -7.874  -3.244  48.508

                      1                      2                      3
                      A                      A                      A
 Frequencies --    107.6229               234.7568               330.8271
 Red. masses --      2.2388                 1.1110                 2.0047
 Frc consts  --      0.0153                 0.0361                 0.1293
 IR Inten    --      0.1305                 0.1799                 0.5752

                      4                      5                      6
                      A                      A                      A
 Frequencies --    397.6105               688.9519               788.8265
 Red. masses --      2.0092                 1.6796                 1.1480
 Frc consts  --      0.1871                 0.4697                 0.4209
 IR Inten    --      1.0188                 8.1841                13.7111

                      7                      8                      9
                      A                      A                      A
 Frequencies --    838.6978               885.1440               912.5927
 Red. masses --      1.9123                 1.1440                 1.4314
 Frc consts  --      0.7925                 0.5281                 0.7024
 IR Inten    --     15.3697                50.9989                25.3651

                     10                     11                     12
                      A                      A                      A
 Frequencies --   1031.2067              1094.8710              1132.3129
 Red. masses --      2.5954                 1.7034                 1.8492
 Frc consts  --      1.6261                 1.2031                 1.3969
 IR Inten    --      0.2355                 4.6453                 0.6080

                     13                     14                     15
                      A                      A                      A
 Frequencies --   1270.1230              1303.2008              1348.2908
 Red. masses --      1.2435                 1.1439                 1.3767
 Frc consts  --      1.1819                 1.1446                 1.4745
 IR Inten    --      0.2852                 0.6573                 6.8985

                     16                     17                     18
                      A                      A                      A
 Frequencies --   1419.6410              1495.4687              1510.9184
 Red. masses --      1.2237                 1.0689                 1.0393
 Frc consts  --      1.4531                 1.4085                 1.3979
 IR Inten    --      1.7480                 2.8495                 6.4146

                     19                     20                     21
                      A                      A                      A
 Frequencies --   1518.1029              1689.0643              3044.8316
 Red. masses --      1.0601                 6.7291                 1.0633
 Frc consts  --      1.4395                11.3110                 5.8082
 IR Inten    --      4.2637                 1.7559                22.8297

                     22                     23                     24
                      A                      A                      A
 Frequencies --   3051.0139              3091.3016              3114.4539
 Red. masses --      1.0346                 1.0970                 1.0886
 Frc consts  --      5.6741                 6.1763                 6.2211
 IR Inten    --     27.1719                 2.9354                 1.7921

                     25                     26                     27
                      A                      A                      A
 Frequencies --   3122.4482              3128.5683              3253.5721
 Red. masses --      1.1002                 1.1028                 1.1037
 Frc consts  --      6.3199                 6.3596                 6.8834
 IR Inten    --     42.9176                35.4909                 0.5337

 - Thermochemistry -
 -------------------
 Temperature   298.150 Kelvin.  Pressure   1.00000 Atm.
 Atom     1 has atomic number  6 and mass  12.00000

 Molecular mass:    55.05478 amu.
 Principal axes and moments of inertia in atomic units:
                           1         2         3
     Eigenvalues --    77.83940 407.48029 416.10580
           X            0.99986   0.01515  -0.00763
           Y           -0.01688   0.93337  -0.35852
           Z            0.00169   0.35860   0.93349
 This molecule is an asymmetric top.
 Rotational symmetry number  1.
 Rotational temperatures (Kelvin)      1.11273     0.21256     0.20815
 Rotational constants (GHZ):          23.18545     4.42903     4.33722
 Zero-point vibrational energy     250046.0 (Joules/Mol)
                                   59.76242 (Kcal/Mol)
 Warning -- explicit consideration of   4 degrees of freedom as
           vibrations may cause significant error
 Vibrational temperatures:    154.85   337.76   475.99   572.07   991.25
          (Kelvin)           1134.95  1206.70  1273.52  1313.02  1483.68
                             1575.28  1629.15  1827.42  1875.02  1939.89
                             2042.55  2151.65  2173.87  2184.21  2430.19
                             4380.83  4389.73  4447.69  4481.00  4492.51
                             4501.31  4681.16

 Zero-point correction=                           0.095237 (Hartree/Particle)
 Thermal correction to Energy=                    0.100505
 Thermal correction to Enthalpy=                  0.101449
 Thermal correction to Gibbs Free Energy=         0.067181
 Sum of electronic and zero-point Energies=           -156.344129
 Sum of electronic and thermal Energies=              -156.338862
 Sum of electronic and thermal Enthalpies=            -156.337918
 Sum of electronic and thermal Free Energies=         -156.372186

                     E (Thermal)             CV                S
                      KCal/Mol        Cal/Mol-Kelvin    Cal/Mol-Kelvin
 Total                   63.068             17.569             72.123
 Electronic               0.000              0.000              1.377
 Translational            0.889              2.981             37.939
 Rotational               0.889              2.981             24.094
 Vibrational             61.290             11.607              8.713
 Vibration     1          0.606              1.943              3.311
 Vibration     2          0.655              1.788              1.842
 Vibration     3          0.713              1.614              1.256
 Vibration     4          0.764              1.475              0.971

                           ! Non-Optimized Parameters !
 Normal termination of Gaussian 16 at Fri May 31 19:09:00 2019.
