 Gaussian 16, Revision B.01,
 Gaussian 16:  ES64L-G16RevB.01 20-Dec-2017

 -----------------------------------------------
 # opt=maxcyc=500 freq=noraman uB2PLYPD3/cc-pvtz
 -----------------------------------------------

 -------------------
 Title Card Required
 -------------------
 Symbolic Z-matrix:
 Charge =  0 Multiplicity = 2

 SCF Done:  E(UB2PLYPD3) =  -156.231112471     A.U. after   16 cycles
 E2(B2PLYPD3) =    -0.2106636317D+00 E(B2PLYPD3) =    -0.15644177610240D+03
 SCF Done:  E(UB2PLYPD3) =  -156.240461940     A.U. after   15 cycles
 E2(B2PLYPD3) =    -0.2109621321D+00 E(B2PLYPD3) =    -0.15645142407175D+03
 SCF Done:  E(UB2PLYPD3) =  -156.242987010     A.U. after   16 cycles
 E2(B2PLYPD3) =    -0.2109812162D+00 E(B2PLYPD3) =    -0.15645396822591D+03
 SCF Done:  E(UB2PLYPD3) =  -156.243256300     A.U. after   14 cycles
 E2(B2PLYPD3) =    -0.2109829533D+00 E(B2PLYPD3) =    -0.15645423925329D+03
 SCF Done:  E(UB2PLYPD3) =  -156.243272661     A.U. after   10 cycles
 E2(B2PLYPD3) =    -0.2110218289D+00 E(B2PLYPD3) =    -0.15645429449018D+03
 SCF Done:  E(UB2PLYPD3) =  -156.243288711     A.U. after   11 cycles
 E2(B2PLYPD3) =    -0.2110359149D+00 E(B2PLYPD3) =    -0.15645432462567D+03
 SCF Done:  E(UB2PLYPD3) =  -156.243293810     A.U. after   10 cycles
 E2(B2PLYPD3) =    -0.2110419437D+00 E(B2PLYPD3) =    -0.15645433575399D+03
 SCF Done:  E(UB2PLYPD3) =  -156.243315714     A.U. after   14 cycles
 E2(B2PLYPD3) =    -0.2110527543D+00 E(B2PLYPD3) =    -0.15645436846818D+03
 SCF Done:  E(UB2PLYPD3) =  -156.243400184     A.U. after   15 cycles
 E2(B2PLYPD3) =    -0.2110706500D+00 E(B2PLYPD3) =    -0.15645447083438D+03
 SCF Done:  E(UB2PLYPD3) =  -156.242288914     A.U. after   15 cycles
 E2(B2PLYPD3) =    -0.2110123321D+00 E(B2PLYPD3) =    -0.15645330124650D+03
 SCF Done:  E(UB2PLYPD3) =  -156.243519410     A.U. after   14 cycles
 E2(B2PLYPD3) =    -0.2110883381D+00 E(B2PLYPD3) =    -0.15645460774813D+03
 SCF Done:  E(UB2PLYPD3) =  -156.243612701     A.U. after   14 cycles
 E2(B2PLYPD3) =    -0.2110825551D+00 E(B2PLYPD3) =    -0.15645469525569D+03
 SCF Done:  E(UB2PLYPD3) =  -156.243717387     A.U. after   14 cycles
 E2(B2PLYPD3) =    -0.2110924122D+00 E(B2PLYPD3) =    -0.15645480979882D+03
 SCF Done:  E(UB2PLYPD3) =  -156.243732628     A.U. after   14 cycles
 E2(B2PLYPD3) =    -0.2111019420D+00 E(B2PLYPD3) =    -0.15645483456977D+03
 SCF Done:  E(UB2PLYPD3) =  -156.243753325     A.U. after   13 cycles
 E2(B2PLYPD3) =    -0.2110962323D+00 E(B2PLYPD3) =    -0.15645484955694D+03
 SCF Done:  E(UB2PLYPD3) =  -156.243753734     A.U. after   12 cycles
 E2(B2PLYPD3) =    -0.2110975693D+00 E(B2PLYPD3) =    -0.15645485130363D+03
 SCF Done:  E(UB2PLYPD3) =  -156.243755383     A.U. after    8 cycles
 E2(B2PLYPD3) =    -0.2110961330D+00 E(B2PLYPD3) =    -0.15645485151591D+03
 SCF Done:  E(UB2PLYPD3) =  -156.243755636     A.U. after   11 cycles
 E2(B2PLYPD3) =    -0.2110959514D+00 E(B2PLYPD3) =    -0.15645485158759D+03
 SCF Done:  E(UB2PLYPD3) =  -156.243755673     A.U. after    7 cycles
 E2(B2PLYPD3) =    -0.2110959324D+00 E(B2PLYPD3) =    -0.15645485160536D+03
 Optimization completed.
    -- Stationary point found.
 Normal termination of Gaussian 16 at Fri May 31 20:37:55 2019.

 ----------------------------------------------------------------------
 #N Geom=AllCheck Guess=TCheck SCRF=Check GenChk UB2PLYPD3(FC)/CC-pVTZ
 Freq
 ----------------------------------------------------------------------

 Structure from the checkpoint file:  "/localscratch/339542/Gau-64365.chk"
 -------------------
 Title Card Required
 -------------------
 Charge =  0 Multiplicity = 2

                         Standard orientation:
 ---------------------------------------------------------------------
 Center     Atomic      Atomic             Coordinates (Angstroms)
 Number     Number       Type             X           Y           Z
 ---------------------------------------------------------------------
      1          6           0       -1.742227   -0.363193   -0.214431
      2          6           0       -0.617446    0.555081    0.120803
      3          1           0       -2.765302   -0.081497   -0.021738
      4          1           0       -1.556140   -1.264440   -0.777505
      5          6           0        0.659247   -0.173708    0.428052
      6          1           0       -0.900022    1.177197    0.974347
      7          6           0        1.784494   -0.055719   -0.269384
      8          1           0        2.672384   -0.612515   -0.008292
      9          1           0        1.849537    0.605569   -1.123409
     10          1           0        0.626631   -0.850722    1.274311
     11          1           0       -0.431496    1.251642   -0.707954
 ---------------------------------------------------------------------

 SCF Done:  E(UB2PLYPD3) =  -156.243755673     A.U. after    1 cycles
 E2(B2PLYPD3) =    -0.2110959326D+00 E(B2PLYPD3) =    -0.15645485160558D+03
 E2(B2PLYPD3) =    -0.2110959326D+00 E(B2PLYPD3) =    -0.15645485160558D+03

 The electronic state is 2-A.
 Alpha  occ. eigenvalues --  -10.62007 -10.61962 -10.61894 -10.60506  -0.92389
 Alpha  occ. eigenvalues --   -0.84010  -0.71858  -0.64160  -0.54964  -0.51534
 Alpha  occ. eigenvalues --   -0.49554  -0.45842  -0.43414  -0.40435  -0.30949
 Alpha  occ. eigenvalues --   -0.26821
 Alpha virt. eigenvalues --    0.06801   0.09466   0.11444   0.11895   0.12856
 Alpha virt. eigenvalues --    0.15426   0.17374   0.17729   0.23506   0.24983
 Alpha virt. eigenvalues --    0.31440   0.32253   0.33092   0.37003   0.37805

  Beta  occ. eigenvalues --  -10.62119 -10.61839 -10.60509 -10.60275  -0.91628
  Beta  occ. eigenvalues --   -0.82279  -0.68842  -0.63613  -0.54617  -0.50889
  Beta  occ. eigenvalues --   -0.48636  -0.44955  -0.42458  -0.40188  -0.30624
  Beta virt. eigenvalues --    0.01461   0.07340   0.09552   0.11538   0.12082
  Beta virt. eigenvalues --    0.13290   0.15731   0.17593   0.17829   0.23666
  Beta virt. eigenvalues --    0.25138   0.31548   0.32594   0.34072   0.37365

 Mulliken charges and spin densities:
               1          2
     1  C   -0.305162   1.084921
     2  C   -0.116775  -0.081591
     3  H    0.129782  -0.043756
     4  H    0.126250  -0.043079
     5  C   -0.099706   0.017371
     6  H    0.101857   0.011146
     7  C   -0.311951  -0.000528
     8  H    0.125455   0.000044
     9  H    0.119513   0.000188
    10  H    0.133265   0.002372
    11  H    0.097471   0.052911
 Sum of Mulliken charges =  -0.00000   1.00000

 Dipole moment (field-independent basis, Debye):
    X=             -0.1935    Y=              0.2113    Z=              0.0366  Tot=              0.2889
 Quadrupole moment (field-independent basis, Debye-Ang):
   XX=            -25.7826   YY=            -26.6579   ZZ=            -26.4406
   XY=             -0.9619   XZ=             -0.6497   YZ=             -0.6814

  Exact polarizability:  61.266  -0.145  39.744  -5.026  -1.682  39.931
 Approx polarizability:  61.197   0.341  45.302  -7.723  -1.806  47.854

                      1                      2                      3
                      A                      A                      A
 Frequencies --    101.4239               135.9837               326.8240
 Red. masses --      1.7646                 1.2144                 1.7280
 Frc consts  --      0.0107                 0.0132                 0.1088
 IR Inten    --      0.2599                 0.2967                 1.6507

                      4                      5                      6
                      A                      A                      A
 Frequencies --    423.5477               492.3405               665.8106
 Red. masses --      1.9396                 1.2803                 1.5793
 Frc consts  --      0.2050                 0.1828                 0.4125
 IR Inten    --      1.2469                45.1685                 9.0939

                      7                      8                      9
                      A                      A                      A
 Frequencies --    808.5581               905.7134               952.4848
 Red. masses --      1.4492                 1.6915                 1.3382
 Frc consts  --      0.5582                 0.8175                 0.7153
 IR Inten    --      3.9283                 0.3907                41.2970

                     10                     11                     12
                      A                      A                      A
 Frequencies --   1034.9158              1055.3684              1086.7630
 Red. masses --      1.0987                 1.8112                 1.6395
 Frc consts  --      0.6933                 1.1886                 1.1409
 IR Inten    --     12.3522                 2.2491                 2.2280

                     13                     14                     15
                      A                      A                      A
 Frequencies --   1124.9371              1248.6818              1327.0795
 Red. masses --      1.9900                 1.2906                 1.2481
 Frc consts  --      1.4837                 1.1856                 1.2951
 IR Inten    --      0.3907                 0.6936                 0.8640

                     16                     17                     18
                      A                      A                      A
 Frequencies --   1347.6561              1458.4576              1474.4692
 Red. masses --      1.4452                 1.1508                 1.1430
 Frc consts  --      1.5465                 1.4422                 1.4641
 IR Inten    --      1.0928                 1.0577                 7.0486

                     19                     20                     21
                      A                      A                      A
 Frequencies --   1480.2108              1703.6363              2973.6268
 Red. masses --      1.1536                 4.4048                 1.0691
 Frc consts  --      1.4893                 7.5323                 5.5696
 IR Inten    --      2.0397                11.2687                21.4170

                     22                     23                     24
                      A                      A                      A
 Frequencies --   3046.2913              3151.6972              3161.6172
 Red. masses --      1.0871                 1.0606                 1.0876
 Frc consts  --      5.9437                 6.2069                 6.4051
 IR Inten    --     19.1383                13.4886                 7.1516

                     25                     26                     27
                      A                      A                      A
 Frequencies --   3169.5663              3242.6267              3277.5381
 Red. masses --      1.0516                 1.1156                 1.1194
 Frc consts  --      6.2245                 6.9114                 7.0851
 IR Inten    --     15.1870                15.1242                10.6503

 - Thermochemistry -
 -------------------
 Temperature   298.150 Kelvin.  Pressure   1.00000 Atm.
 Atom     1 has atomic number  6 and mass  12.00000

 Molecular mass:    55.05478 amu.
 Principal axes and moments of inertia in atomic units:
                           1         2         3
     Eigenvalues --    73.26903 411.76780 423.00108
           X            0.99997  -0.00576  -0.00523
           Y            0.00483   0.98648  -0.16380
           Z            0.00610   0.16377   0.98648
 This molecule is an asymmetric top.
 Rotational symmetry number  1.
 Rotational temperatures (Kelvin)      1.18214     0.21035     0.20476
 Rotational constants (GHZ):          24.63171     4.38291     4.26652
 Zero-point vibrational energy     246298.1 (Joules/Mol)
                                   58.86666 (Kcal/Mol)
 Warning -- explicit consideration of   5 degrees of freedom as
           vibrations may cause significant error
 Vibrational temperatures:    145.93   195.65   470.23   609.39   708.37
          (Kelvin)            957.95  1163.33  1303.12  1370.41  1489.01
                             1518.44  1563.61  1618.53  1796.57  1909.37
                             1938.98  2098.40  2121.43  2129.69  2451.15
                             4278.39  4382.93  4534.59  4548.86  4560.30
                             4665.42  4715.65

 Zero-point correction=                           0.093810 (Hartree/Particle)
 Thermal correction to Energy=                    0.099410
 Thermal correction to Enthalpy=                  0.100354
 Thermal correction to Gibbs Free Energy=         0.065337
 Sum of electronic and zero-point Energies=           -156.361042
 Sum of electronic and thermal Energies=              -156.355442
 Sum of electronic and thermal Enthalpies=            -156.354498
 Sum of electronic and thermal Free Energies=         -156.389514

                     E (Thermal)             CV                S
                      KCal/Mol        Cal/Mol-Kelvin    Cal/Mol-Kelvin
 Total                   62.381             18.527             73.699
 Electronic               0.000              0.000              1.377
 Translational            0.889              2.981             37.939
 Rotational               0.889              2.981             24.060
 Vibrational             60.603             12.565             10.323
 Vibration     1          0.604              1.948              3.427
 Vibration     2          0.614              1.917              2.860
 Vibration     3          0.710              1.622              1.276
 Vibration     4          0.786              1.419              0.880
 Vibration     5          0.848              1.267              0.678

 Optimization completed.
    -- Stationary point found.
 Normal termination of Gaussian 16 at Fri May 31 20:50:20 2019.
