 Gaussian 16, Revision B.01,
 Gaussian 16:  ES64L-G16RevB.01 20-Dec-2017

 -----------------------------------------------
 # opt=maxcyc=500 freq=noraman uB2PLYPD3/cc-pvtz
 -----------------------------------------------

 -------------------
 Title Card Required
 -------------------
 Symbolic Z-matrix:
 Charge =  0 Multiplicity = 2

 SCF Done:  E(UB2PLYPD3) =  -156.235297973     A.U. after   16 cycles
 E2(B2PLYPD3) =    -0.2111172217D+00 E(B2PLYPD3) =    -0.15644641519509D+03
 SCF Done:  E(UB2PLYPD3) =  -156.244318147     A.U. after   15 cycles
 E2(B2PLYPD3) =    -0.2111730548D+00 E(B2PLYPD3) =    -0.15645549120138D+03
 SCF Done:  E(UB2PLYPD3) =  -156.246667637     A.U. after   15 cycles
 E2(B2PLYPD3) =    -0.2111898739D+00 E(B2PLYPD3) =    -0.15645785751126D+03
 SCF Done:  E(UB2PLYPD3) =  -156.246976874     A.U. after   14 cycles
 E2(B2PLYPD3) =    -0.2112610101D+00 E(B2PLYPD3) =    -0.15645823788449D+03
 SCF Done:  E(UB2PLYPD3) =  -156.247800641     A.U. after   14 cycles
 E2(B2PLYPD3) =    -0.2114440042D+00 E(B2PLYPD3) =    -0.15645924464535D+03
 SCF Done:  E(UB2PLYPD3) =  -156.255854431     A.U. after   18 cycles
 E2(B2PLYPD3) =    -0.2109017242D+00 E(B2PLYPD3) =    -0.15646675615501D+03
 SCF Done:  E(UB2PLYPD3) =  -156.266990924     A.U. after   17 cycles
 E2(B2PLYPD3) =    -0.2104508946D+00 E(B2PLYPD3) =    -0.15647744181882D+03
 SCF Done:  E(UB2PLYPD3) =  -156.271238944     A.U. after   14 cycles
 E2(B2PLYPD3) =    -0.2101864937D+00 E(B2PLYPD3) =    -0.15648142543796D+03
 SCF Done:  E(UB2PLYPD3) =  -156.271959372     A.U. after   13 cycles
 E2(B2PLYPD3) =    -0.2103083780D+00 E(B2PLYPD3) =    -0.15648226775019D+03
 SCF Done:  E(UB2PLYPD3) =  -156.272075496     A.U. after   11 cycles
 E2(B2PLYPD3) =    -0.2102977419D+00 E(B2PLYPD3) =    -0.15648237323740D+03
 E2(B2PLYPD3) =    -0.2102912420D+00 E(B2PLYPD3) =    -0.15648240042744D+03
 E2(B2PLYPD3) =    -0.2102903853D+00 E(B2PLYPD3) =    -0.15648240248044D+03
 E2(B2PLYPD3) =    -0.2102894787D+00 E(B2PLYPD3) =    -0.15648240513807D+03
 E2(B2PLYPD3) =    -0.2102873155D+00 E(B2PLYPD3) =    -0.15648241258425D+03
 E2(B2PLYPD3) =    -0.2102821958D+00 E(B2PLYPD3) =    -0.15648242018594D+03
 SCF Done:  E(UB2PLYPD3) =  -156.272147668     A.U. after   11 cycles
 E2(B2PLYPD3) =    -0.2102794586D+00 E(B2PLYPD3) =    -0.15648242712628D+03
 SCF Done:  E(UB2PLYPD3) =  -156.272199566     A.U. after   12 cycles
 E2(B2PLYPD3) =    -0.2102603816D+00 E(B2PLYPD3) =    -0.15648245994721D+03
 SCF Done:  E(UB2PLYPD3) =  -156.272225219     A.U. after   12 cycles
 E2(B2PLYPD3) =    -0.2102439383D+00 E(B2PLYPD3) =    -0.15648246915706D+03
 SCF Done:  E(UB2PLYPD3) =  -156.272228977     A.U. after   11 cycles
 E2(B2PLYPD3) =    -0.2102447675D+00 E(B2PLYPD3) =    -0.15648247374462D+03
 SCF Done:  E(UB2PLYPD3) =  -156.272210823     A.U. after   11 cycles
 E2(B2PLYPD3) =    -0.2102636922D+00 E(B2PLYPD3) =    -0.15648247451491D+03
 SCF Done:  E(UB2PLYPD3) =  -156.272227119     A.U. after   11 cycles
 E2(B2PLYPD3) =    -0.2102493779D+00 E(B2PLYPD3) =    -0.15648247649720D+03
 SCF Done:  E(UB2PLYPD3) =  -156.272223400     A.U. after    8 cycles
 E2(B2PLYPD3) =    -0.2102535130D+00 E(B2PLYPD3) =    -0.15648247691301D+03
 SCF Done:  E(UB2PLYPD3) =  -156.272223744     A.U. after    9 cycles
 E2(B2PLYPD3) =    -0.2102532487D+00 E(B2PLYPD3) =    -0.15648247699319D+03
 SCF Done:  E(UB2PLYPD3) =  -156.272222850     A.U. after    8 cycles
 E2(B2PLYPD3) =    -0.2102541651D+00 E(B2PLYPD3) =    -0.15648247701463D+03
 Optimization completed.
    -- Stationary point found.
 Normal termination of Gaussian 16 at Fri May 31 20:01:23 2019.

 ----------------------------------------------------------------------
 #N Geom=AllCheck Guess=TCheck SCRF=Check GenChk UB2PLYPD3(FC)/CC-pVTZ
 Freq
 ----------------------------------------------------------------------

 Structure from the checkpoint file:  "/localscratch/339542/Gau-21170.chk"
 -------------------
 Title Card Required
 -------------------
 Charge =  0 Multiplicity = 2

                         Standard orientation:
 ---------------------------------------------------------------------
 Center     Atomic      Atomic             Coordinates (Angstroms)
 Number     Number       Type             X           Y           Z
 ---------------------------------------------------------------------
      1          6           0       -1.538108   -0.471026   -0.000008
      2          6           0       -0.582848    0.672927   -0.000005
      3          1           0       -2.191311   -0.432188   -0.874692
      4          1           0       -1.036192   -1.434569   -0.000695
      5          1           0       -2.190391   -0.432991    0.875412
      6          6           0        0.798287    0.577581   -0.000015
      7          1           0       -1.015958    1.664264    0.000087
      8          6           0        1.550207   -0.577776    0.000006
      9          1           0        2.627414   -0.531960    0.000038
     10          1           0        1.099318   -1.557834    0.000000
     11          1           0        1.341885    1.515051   -0.000024
 ---------------------------------------------------------------------

 SCF Done:  E(UB2PLYPD3) =  -156.272222850     A.U. after    1 cycles
 E2(B2PLYPD3) =    -0.2102541666D+00 E(B2PLYPD3) =    -0.15648247701620D+03
 E2(B2PLYPD3) =    -0.2102541666D+00 E(B2PLYPD3) =    -0.15648247701620D+03

 The electronic state is 2-A.
 Alpha  occ. eigenvalues --  -10.62278 -10.61287 -10.60992 -10.60785  -0.92624
 Alpha  occ. eigenvalues --   -0.83848  -0.74833  -0.61510  -0.56322  -0.49964
 Alpha  occ. eigenvalues --   -0.48767  -0.46699  -0.42693  -0.40894  -0.36523
 Alpha  occ. eigenvalues --   -0.23922
 Alpha virt. eigenvalues --    0.08501   0.10446   0.10559   0.11859   0.15417
 Alpha virt. eigenvalues --    0.15769   0.16646   0.20964   0.24482   0.28854
 Alpha virt. eigenvalues --    0.30368   0.30837   0.35367   0.36689   0.37201

  Beta  occ. eigenvalues --  -10.61627 -10.61078 -10.60879 -10.60111  -0.91163
  Beta  occ. eigenvalues --   -0.82572  -0.72451  -0.60485  -0.55916  -0.49521
  Beta  occ. eigenvalues --   -0.47179  -0.46094  -0.42354  -0.40589  -0.32572
  Beta virt. eigenvalues --   -0.00269   0.08645   0.10543   0.12110   0.13153
  Beta virt. eigenvalues --    0.15726   0.16196   0.16716   0.21061   0.24721
  Beta virt. eigenvalues --    0.28912   0.30943   0.31492   0.35582   0.37722

 Mulliken charges and spin densities:
               1          2
     1  C   -0.275981  -0.045510
     2  C   -0.133973   0.714087
     3  H    0.102080   0.021891
     4  H    0.097221   0.001119
     5  H    0.102080   0.021929
     6  C   -0.086065  -0.368904
     7  H    0.124346  -0.034349
     8  C   -0.302002   0.737909
     9  H    0.124604  -0.034599
    10  H    0.117494  -0.028548
    11  H    0.130197   0.014973
 Sum of Mulliken charges =  -0.00000   1.00000

 Dipole moment (field-independent basis, Debye):
    X=             -0.4068    Y=              0.0030    Z=              0.0001  Tot=              0.4068
 Quadrupole moment (field-independent basis, Debye-Ang):
   XX=            -24.5514   YY=            -24.7377   ZZ=            -28.5321
   XY=              0.0234   XZ=             -0.0000   YZ=              0.0001

  Exact polarizability:  66.954  -5.992  48.609  -0.001  -0.000  31.709
 Approx polarizability:  64.626  -6.837  53.753  -0.001  -0.000  38.812

                      1                      2                      3
                      A                      A                      A
 Frequencies --     29.1655               296.5216               301.2662
 Red. masses --      1.0577                 2.6602                 1.6029
 Frc consts  --      0.0005                 0.1378                 0.0857
 IR Inten    --      0.2551                 0.3884                 0.9205

                      4                      5                      6
                      A                      A                      A
 Frequencies --    545.8592               575.8630               706.0808
 Red. masses --      1.3454                 2.1233                 1.1614
 Frc consts  --      0.2362                 0.4149                 0.3412
 IR Inten    --     10.8616                 0.6641                25.7703

                      7                      8                      9
                      A                      A                      A
 Frequencies --    798.2391               886.5391              1005.6852
 Red. masses --      1.3961                 2.0805                 1.2807
 Frc consts  --      0.5241                 0.9634                 0.7631
 IR Inten    --     34.8644                 6.9403                 5.9477

                     10                     11                     12
                      A                      A                      A
 Frequencies --   1030.0171              1037.7296              1095.2974
 Red. masses --      1.4816                 1.3364                 1.7448
 Frc consts  --      0.9261                 0.8479                 1.2333
 IR Inten    --      0.2569                 2.9057                 4.6612

                     13                     14                     15
                      A                      A                      A
 Frequencies --   1213.2984              1232.8486              1409.1586
 Red. masses --      1.8761                 1.8460                 1.2037
 Frc consts  --      1.6272                 1.6531                 1.4083
 IR Inten    --      0.2729                 0.4652                 1.4476

                     16                     17                     18
                      A                      A                      A
 Frequencies --   1449.2353              1463.5786              1490.3544
 Red. masses --      1.2932                 1.6706                 1.0446
 Frc consts  --      1.6002                 2.1084                 1.3671
 IR Inten    --      4.9409                14.0881                 5.8470

                     19                     20                     21
                      A                      A                      A
 Frequencies --   1526.9562              1542.6573              3033.7400
 Red. masses --      1.3094                 1.5172                 1.0401
 Frc consts  --      1.7987                 2.1273                 5.6401
 IR Inten    --      5.6907                 4.3779                23.4979

                     22                     23                     24
                      A                      A                      A
 Frequencies --   3074.5274              3141.3787              3159.4841
 Red. masses --      1.0984                 1.0947                 1.0849
 Frc consts  --      6.1176                 6.3650                 6.3810
 IR Inten    --     18.0083                 7.2711                 7.0879

                     25                     26                     27
                      A                      A                      A
 Frequencies --   3179.5974              3189.1823              3272.0018
 Red. masses --      1.0563                 1.0892                 1.1167
 Frc consts  --      6.2917                 6.5272                 7.0439
 IR Inten    --     16.7335                16.8856                11.4241

 - Thermochemistry -
 -------------------
 Temperature   298.150 Kelvin.  Pressure   1.00000 Atm.
 Atom     1 has atomic number  6 and mass  12.00000

 Molecular mass:    55.05478 amu.
 Principal axes and moments of inertia in atomic units:
                           1         2         3
     Eigenvalues --    99.64501 329.44604 418.06777
           X            0.99995   0.00993  -0.00000
           Y           -0.00993   0.99995   0.00000
           Z            0.00000  -0.00000   1.00000
 This molecule is an asymmetric top.
 Rotational symmetry number  1.
 Rotational temperatures (Kelvin)      0.86922     0.26291     0.20718
 Rotational constants (GHZ):          18.11171     5.47811     4.31686
 Zero-point vibrational energy     249339.2 (Joules/Mol)
                                   59.59350 (Kcal/Mol)
 Warning -- explicit consideration of   5 degrees of freedom as
           vibrations may cause significant error
 Vibrational temperatures:     41.96   426.63   433.45   785.37   828.54
          (Kelvin)           1015.89  1148.49  1275.53  1446.96  1481.96
                             1493.06  1575.89  1745.67  1773.79  2027.46
                             2085.13  2105.76  2144.29  2196.95  2219.54
                             4364.88  4423.56  4519.74  4545.79  4574.73
                             4588.52  4707.68

 Zero-point correction=                           0.094968 (Hartree/Particle)
 Thermal correction to Energy=                    0.100324
 Thermal correction to Enthalpy=                  0.101269
 Thermal correction to Gibbs Free Energy=         0.065941
 Sum of electronic and zero-point Energies=           -156.387509
 Sum of electronic and thermal Energies=              -156.382153
 Sum of electronic and thermal Enthalpies=            -156.381208
 Sum of electronic and thermal Free Energies=         -156.416536

                     E (Thermal)             CV                S
                      KCal/Mol        Cal/Mol-Kelvin    Cal/Mol-Kelvin
 Total                   62.955             17.726             74.353
 Electronic               0.000              0.000              1.377
 Translational            0.889              2.981             37.939
 Rotational               0.889              2.981             24.132
 Vibrational             61.177             11.764             10.904
 Vibration     1          0.593              1.984              5.885
 Vibration     2          0.690              1.680              1.436
 Vibration     3          0.693              1.671              1.410
 Vibration     4          0.901              1.149              0.553
 Vibration     5          0.932              1.083              0.493

 Optimization completed.
    -- Stationary point found.
 Normal termination of Gaussian 16 at Fri May 31 20:13:43 2019.
