 Gaussian 16, Revision B.01,
 Gaussian 16:  ES64L-G16RevB.01 20-Dec-2017

 -----------------------------------------------
 # opt=maxcyc=500 freq=noraman uB2PLYPD3/cc-pvtz
 -----------------------------------------------

 -------------------
 Title Card Required
 -------------------
 Symbolic Z-matrix:
 Charge =  0 Multiplicity = 2

 SCF Done:  E(UB2PLYPD3) =  -155.002884112     A.U. after   19 cycles
 E2(B2PLYPD3) =    -0.2030299711D+00 E(B2PLYPD3) =    -0.15520591408317D+03
 SCF Done:  E(UB2PLYPD3) =  -155.024403767     A.U. after   18 cycles
 E2(B2PLYPD3) =    -0.2032555165D+00 E(B2PLYPD3) =    -0.15522765928379D+03
 SCF Done:  E(UB2PLYPD3) =  -155.027881597     A.U. after   20 cycles
 E2(B2PLYPD3) =    -0.2029940561D+00 E(B2PLYPD3) =    -0.15523087565324D+03
 SCF Done:  E(UB2PLYPD3) =  -155.031212506     A.U. after   20 cycles
 E2(B2PLYPD3) =    -0.2028802671D+00 E(B2PLYPD3) =    -0.15523409277351D+03
 SCF Done:  E(UB2PLYPD3) =  -155.027413672     A.U. after   17 cycles
 E2(B2PLYPD3) =    -0.2036202597D+00 E(B2PLYPD3) =    -0.15523103393137D+03
 SCF Done:  E(UB2PLYPD3) =  -155.033345155     A.U. after   16 cycles
 E2(B2PLYPD3) =    -0.2033463947D+00 E(B2PLYPD3) =    -0.15523669155011D+03
 SCF Done:  E(UB2PLYPD3) =  -155.035104708     A.U. after   15 cycles
 E2(B2PLYPD3) =    -0.2031014377D+00 E(B2PLYPD3) =    -0.15523820614573D+03
 SCF Done:  E(UB2PLYPD3) =  -155.035177935     A.U. after   14 cycles
 E2(B2PLYPD3) =    -0.2030861253D+00 E(B2PLYPD3) =    -0.15523826406022D+03
 SCF Done:  E(UB2PLYPD3) =  -155.035177496     A.U. after   10 cycles
 E2(B2PLYPD3) =    -0.2030884326D+00 E(B2PLYPD3) =    -0.15523826592909D+03
 SCF Done:  E(UB2PLYPD3) =  -155.035177831     A.U. after    8 cycles
 E2(B2PLYPD3) =    -0.2030890057D+00 E(B2PLYPD3) =    -0.15523826683691D+03
 Optimization completed.
    -- Stationary point found.
 Normal termination of Gaussian 16 at Sun Jun  2 16:21:38 2019.

 ----------------------------------------------------------------------
 #N Geom=AllCheck Guess=TCheck SCRF=Check GenChk UB2PLYPD3(FC)/CC-pVTZ
 Freq
 ----------------------------------------------------------------------

 Structure from the checkpoint file:  "/localscratch/339752/Gau-87375.chk"
 -------------------
 Title Card Required
 -------------------
 Charge =  0 Multiplicity = 2

                         Standard orientation:
 ---------------------------------------------------------------------
 Center     Atomic      Atomic             Coordinates (Angstroms)
 Number     Number       Type             X           Y           Z
 ---------------------------------------------------------------------
      1          6           0       -0.019432    2.078510   -0.000000
      2          6           0       -0.009063    0.706608   -0.000000
      3          6           0       -0.000000   -0.514758    0.000000
      4          6           0        0.021295   -1.968143    0.000000
      5          1           0        1.046309   -2.342147    0.000000
      6          1           0       -0.477778   -2.367308    0.882645
      7          1           0       -0.477778   -2.367308   -0.882645
      8          1           0       -0.023777    2.631734   -0.926356
      9          1           0       -0.023777    2.631734    0.926356
 ---------------------------------------------------------------------

 SCF Done:  E(UB2PLYPD3) =  -155.035177831     A.U. after    1 cycles
 E2(B2PLYPD3) =    -0.2030890092D+00 E(B2PLYPD3) =    -0.15523826684043D+03
 E2(B2PLYPD3) =    -0.2030890092D+00 E(B2PLYPD3) =    -0.15523826684043D+03

 The electronic state is 2-A'.
 Alpha  occ. eigenvalues --  -10.63625 -10.63331 -10.62477 -10.61009  -0.91600
 Alpha  occ. eigenvalues --   -0.85892  -0.77582  -0.56962  -0.52397  -0.51606
 Alpha  occ. eigenvalues --   -0.50778  -0.49827  -0.38545  -0.30903  -0.25166
 Alpha virt. eigenvalues --    0.08304   0.09925   0.10655   0.13201   0.15064
 Alpha virt. eigenvalues --    0.18294   0.18539   0.21020   0.24301   0.31143
 Alpha virt. eigenvalues --    0.31194   0.32144   0.33603   0.34538   0.38321

  Beta  occ. eigenvalues --  -10.63723 -10.61950 -10.61722 -10.61369  -0.90092
  Beta  occ. eigenvalues --   -0.84525  -0.74924  -0.56034  -0.51774  -0.51076
  Beta  occ. eigenvalues --   -0.49462  -0.49430  -0.33739  -0.30591
  Beta virt. eigenvalues --   -0.01349   0.08382   0.10031   0.11195   0.14250
  Beta virt. eigenvalues --    0.15156   0.18409   0.20285   0.21232   0.24409
  Beta virt. eigenvalues --    0.31316   0.31747   0.32663   0.34377   0.38230

 Mulliken charges and spin densities:
               1          2
     1  C   -0.382392   0.857963
     2  C    0.084848  -0.324346
     3  C   -0.010755   0.546185
     4  C   -0.318118  -0.050995
     5  H    0.119099   0.029129
     6  H    0.119950   0.010504
     7  H    0.119950   0.010504
     8  H    0.133709  -0.039472
     9  H    0.133709  -0.039472
 Sum of Mulliken charges =   0.00000   1.00000

 Dipole moment (field-independent basis, Debye):
    X=              0.0216    Y=             -0.8345    Z=              0.0000  Tot=              0.8348
 Quadrupole moment (field-independent basis, Debye-Ang):
   XX=            -26.3083   YY=            -19.0202   ZZ=            -24.5735
   XY=             -0.0771   XZ=             -0.0000   YZ=              0.0000

  Exact polarizability:  29.840  -0.647  80.852  -0.000  -0.000  32.372
 Approx polarizability:  35.128  -0.492  83.875   0.000  -0.000  37.457

                      1                      2                      3
                     A"                     A'                     A"
 Frequencies --     22.8577               189.6676               206.5846
 Red. masses --      1.0082                 3.1853                 2.7070
 Frc consts  --      0.0003                 0.0675                 0.0681
 IR Inten    --      0.0203                 8.6353                 8.5728

                      4                      5                      6
                     A"                     A'                     A'
 Frequencies --    381.8330               419.5774               663.0788
 Red. masses --      3.8164                 5.4752                 1.3581
 Frc consts  --      0.3278                 0.5679                 0.3518
 IR Inten    --      0.0079                 0.3910                48.9549

                      7                      8                      9
                     A'                     A"                     A'
 Frequencies --    772.5480              1040.9825              1044.4988
 Red. masses --      3.8975                 1.4296                 1.3606
 Frc consts  --      1.3705                 0.9128                 0.8746
 IR Inten    --      0.1397                 0.8647                 1.8461

                     10                     11                     12
                     A"                     A'                     A'
 Frequencies --   1062.4201              1255.0720              1424.9099
 Red. masses --      1.3783                 3.5743                 1.2548
 Frc consts  --      0.9166                 3.3173                 1.5011
 IR Inten    --      0.4831                 1.4967                 3.3749

                     13                     14                     15
                     A'                     A'                     A"
 Frequencies --   1481.7433              1489.0364              1489.4264
 Red. masses --      1.2572                 1.0410                 1.0382
 Frc consts  --      1.6263                 1.3599                 1.3570
 IR Inten    --      0.0676                 7.2335                 7.4709

                     16                     17                     18
                     A'                     A'                     A'
 Frequencies --   2179.3695              3042.3372              3100.5765
 Red. masses --     11.7351                 1.0347                 1.0991
 Frc consts  --     32.8398                 5.6427                 6.2255
 IR Inten    --     24.0386                23.8919                 8.4348

                     19                     20                     21
                     A"                     A'                     A"
 Frequencies --   3114.5415              3168.7452              3261.6533
 Red. masses --      1.1014                 1.0504                 1.1178
 Frc consts  --      6.2946                 6.2139                 7.0065
 IR Inten    --      7.9344                 7.7733                 1.7939

 - Thermochemistry -
 -------------------
 Temperature   298.150 Kelvin.  Pressure   1.00000 Atm.
 Atom     1 has atomic number  6 and mass  12.00000

 Molecular mass:    53.03913 amu.
 Principal axes and moments of inertia in atomic units:
                           1         2         3
     Eigenvalues --    17.36112 499.22144 505.42948
           X           -0.01009   0.00000   0.99995
           Y            0.99995   0.00000   0.01009
           Z           -0.00000   1.00000  -0.00000
 This molecule is an asymmetric top.
 Rotational symmetry number  1.
 Rotational temperatures (Kelvin)      4.98896     0.17350     0.17137
 Rotational constants (GHZ):         103.95307     3.61511     3.57071
 Zero-point vibrational energy     184293.5 (Joules/Mol)
                                   44.04719 (Kcal/Mol)
 Warning -- explicit consideration of   5 degrees of freedom as
           vibrations may cause significant error
 Vibrational temperatures:     32.89   272.89   297.23   549.37   603.68
          (Kelvin)            954.02  1111.52  1497.74  1502.80  1528.59
                             1805.77  2050.13  2131.90  2142.39  2142.95
                             3135.63  4377.24  4461.04  4481.13  4559.12
                             4692.79

 Zero-point correction=                           0.070194 (Hartree/Particle)
 Thermal correction to Energy=                    0.076008
 Thermal correction to Enthalpy=                  0.076952
 Thermal correction to Gibbs Free Energy=         0.040983
 Sum of electronic and zero-point Energies=           -155.168073
 Sum of electronic and thermal Energies=              -155.162259
 Sum of electronic and thermal Enthalpies=            -155.161315
 Sum of electronic and thermal Free Energies=         -155.197284

                     E (Thermal)             CV                S
                      KCal/Mol        Cal/Mol-Kelvin    Cal/Mol-Kelvin
 Total                   47.695             17.656             75.703
 Electronic               0.000              0.000              1.377
 Translational            0.889              2.981             37.828
 Rotational               0.889              2.981             22.998
 Vibrational             45.918             11.695             13.500
 Vibration     1          0.593              1.985              6.369
 Vibration     2          0.633              1.854              2.231
 Vibration     3          0.641              1.830              2.074
 Vibration     4          0.751              1.509              1.032
 Vibration     5          0.782              1.428              0.893

 Optimization completed.
    -- Stationary point found.
 Normal termination of Gaussian 16 at Sun Jun  2 16:27:30 2019.
