 Gaussian 16, Revision B.01,
 Gaussian 16:  ES64L-G16RevB.01 20-Dec-2017

 -----------------------------------------------
 # opt=maxcyc=500 freq=noraman uB2PLYPD3/cc-pvtz
 -----------------------------------------------

 -------------------
 Title Card Required
 -------------------
 Symbolic Z-matrix:
 Charge =  0 Multiplicity = 1

 SCF Done:  E(UB2PLYPD3) =  -155.667357689     A.U. after   10 cycles
 E2(B2PLYPD3) =    -0.2147881794D+00 E(B2PLYPD3) =    -0.15588214586848D+03
 SCF Done:  E(UB2PLYPD3) =  -155.674276237     A.U. after    9 cycles
 E2(B2PLYPD3) =    -0.2155900689D+00 E(B2PLYPD3) =    -0.15588986630607D+03
 SCF Done:  E(UB2PLYPD3) =  -155.674669936     A.U. after    8 cycles
 E2(B2PLYPD3) =    -0.2157357631D+00 E(B2PLYPD3) =    -0.15589040569885D+03
 SCF Done:  E(UB2PLYPD3) =  -155.674706756     A.U. after    6 cycles
 E2(B2PLYPD3) =    -0.2157159810D+00 E(B2PLYPD3) =    -0.15589042273656D+03
 Optimization completed.
    -- Stationary point found.
 Normal termination of Gaussian 16 at Sun Jun  2 16:28:57 2019.

 ----------------------------------------------------------------------
 #N Geom=AllCheck Guess=TCheck SCRF=Check GenChk UB2PLYPD3(FC)/CC-pVTZ
 Freq
 ----------------------------------------------------------------------

 Structure from the checkpoint file:  "/localscratch/339752/Gau-4869.chk"
 -------------------
 Title Card Required
 -------------------
 Charge =  0 Multiplicity = 1

                         Standard orientation:
 ---------------------------------------------------------------------
 Center     Atomic      Atomic             Coordinates (Angstroms)
 Number     Number       Type             X           Y           Z
 ---------------------------------------------------------------------
      1          6           0       -0.000000   -0.000000    2.061362
      2          6           0       -0.000000   -0.000000    0.603117
      3          6           0       -0.000000   -0.000000   -0.603117
      4          6           0       -0.000000   -0.000000   -2.061362
      5          1           0        0.880863    0.508567   -2.451912
      6          1           0       -0.000000   -1.017133   -2.451912
      7          1           0       -0.880863    0.508567   -2.451912
      8          1           0        0.000000    1.017133    2.451912
      9          1           0       -0.880863   -0.508567    2.451912
     10          1           0        0.880863   -0.508567    2.451912
 ---------------------------------------------------------------------

 SCF Done:  E(UB2PLYPD3) =  -155.674706756     A.U. after    1 cycles
 E2(B2PLYPD3) =    -0.2157159686D+00 E(B2PLYPD3) =    -0.15589042272415D+03
 E2(B2PLYPD3) =    -0.2157159686D+00 E(B2PLYPD3) =    -0.15589042272415D+03

 The electronic state is 1-A1G.
 Alpha  occ. eigenvalues --  -10.62750 -10.62750 -10.60237 -10.59939  -0.89883
 Alpha  occ. eigenvalues --   -0.85271  -0.77148  -0.55268  -0.50303  -0.49892
 Alpha  occ. eigenvalues --   -0.49892  -0.48444  -0.48444  -0.29736  -0.29736
 Alpha virt. eigenvalues --    0.08458   0.09513   0.11200   0.11200   0.15602
 Alpha virt. eigenvalues --    0.15602   0.18978   0.18978   0.21592   0.22960
 Alpha virt. eigenvalues --    0.31959   0.31959   0.31998   0.31998   0.34382

  Beta  occ. eigenvalues --  -10.62750 -10.62750 -10.60237 -10.59939  -0.89883
  Beta  occ. eigenvalues --   -0.85271  -0.77148  -0.55268  -0.50303  -0.49892
  Beta  occ. eigenvalues --   -0.49892  -0.48444  -0.48444  -0.29736  -0.29736
  Beta virt. eigenvalues --    0.08458   0.09513   0.11200   0.11200   0.15602
  Beta virt. eigenvalues --    0.15602   0.18978   0.18978   0.21592   0.22960
  Beta virt. eigenvalues --    0.31959   0.31959   0.31998   0.31998   0.34382

 Mulliken charges and spin densities:
               1          2
     1  C   -0.331408   0.000000
     2  C   -0.016845  -0.000000
     3  C   -0.016845  -0.000000
     4  C   -0.331408   0.000000
     5  H    0.116084  -0.000000
     6  H    0.116084  -0.000000
     7  H    0.116084  -0.000000
     8  H    0.116084  -0.000000
     9  H    0.116084  -0.000000
    10  H    0.116084  -0.000000
 Sum of Mulliken charges =  -0.00000  -0.00000

 Dipole moment (field-independent basis, Debye):
    X=             -0.0000    Y=              0.0000    Z=              0.0000  Tot=              0.0000
 Quadrupole moment (field-independent basis, Debye-Ang):
   XX=            -25.8720   YY=            -25.8720   ZZ=            -19.1372
   XY=              0.0000   XZ=              0.0000   YZ=             -0.0000

  Exact polarizability:  33.851  -0.000  33.851  -0.000  -0.000  69.280
 Approx polarizability:  39.681   0.000  39.681  -0.000   0.000  75.042

                      1                      2                      3
                     A1U                    EU                     EU
 Frequencies --     20.6423               200.5400               200.5403
 Red. masses --      1.0078                 2.8049                 2.8049
 Frc consts  --      0.0003                 0.0665                 0.0665
 IR Inten    --      0.0000                11.2275                11.2274

                      4                      5                      6
                     EG                     EG                     A1G
 Frequencies --    379.8917               379.8938               724.3119
 Red. masses --      4.2058                 4.2058                 3.6530
 Frc consts  --      0.3576                 0.3576                 1.1291
 IR Inten    --      0.0000                 0.0000                 0.0000

                      7                      8                      9
                     EU                     EU                     EG
 Frequencies --   1063.2216              1063.2217              1065.7493
 Red. masses --      1.3699                 1.3699                 1.3995
 Frc consts  --      0.9124                 0.9124                 0.9366
 IR Inten    --      1.4810                 1.4811                 0.0000

                     10                     11                     12
                     EG                     A2U                    A2U
 Frequencies --   1065.7494              1175.9573              1425.6350
 Red. masses --      1.3995                 4.4431                 1.2916
 Frc consts  --      0.9366                 3.6201                 1.5467
 IR Inten    --      0.0000                 0.0411                 3.9268

                     13                     14                     15
                     A1G                    EG                     EG
 Frequencies --   1429.3737              1496.5127              1496.5136
 Red. masses --      1.2119                 1.0411                 1.0411
 Frc consts  --      1.4588                 1.3737                 1.3737
 IR Inten    --      0.0000                 0.0000                 0.0000

                     16                     17                     18
                     EU                     EU                     A1G
 Frequencies --   1496.7843              1496.7851              2333.3776
 Red. masses --      1.0376                 1.0376                11.7617
 Frc consts  --      1.3697                 1.3697                37.7303
 IR Inten    --     13.5359                13.5366                 0.0000

                     19                     20                     21
                     A1G                    A2U                    EG
 Frequencies --   3050.4786              3051.0880              3114.2412
 Red. masses --      1.0339                 1.0343                 1.1010
 Frc consts  --      5.6684                 5.6729                 6.2912
 IR Inten    --      0.0000                58.0433                 0.0000

                     22                     23                     24
                     EG                     EU                     EU
 Frequencies --   3114.2413              3114.6844              3114.6844
 Red. masses --      1.1010                 1.1012                 1.1012
 Frc consts  --      6.2911                 6.2941                 6.2941
 IR Inten    --      0.0000                21.1747                21.1748

 - Thermochemistry -
 -------------------
 Temperature   298.150 Kelvin.  Pressure   1.00000 Atm.
 Atom     1 has atomic number  6 and mass  12.00000

 Molecular mass:    54.04695 amu.
 Principal axes and moments of inertia in atomic units:
                           1         2         3
     Eigenvalues --    22.34034 536.34754 536.34754
           X           -0.00000  -0.14032   0.99011
           Y            0.00000   0.99011   0.14032
           Z            1.00000  -0.00000   0.00000
 This molecule is a prolate symmetric top.
 Rotational symmetry number  6.
 Rotational temperatures (Kelvin)      3.87702     0.16149     0.16149
 Rotational constants (GHZ):          80.78395     3.36487     3.36487
 Zero-point vibrational energy     221752.5 (Joules/Mol)
                                   53.00011 (Kcal/Mol)
 Warning -- explicit consideration of   5 degrees of freedom as
           vibrations may cause significant error
 Vibrational temperatures:     29.70   288.53   288.53   546.58   546.58
          (Kelvin)           1042.12  1529.74  1529.74  1533.38  1533.38
                             1691.94  2051.17  2056.55  2153.15  2153.15
                             2153.54  2153.54  3357.21  4388.96  4389.84
                             4480.70  4480.70  4481.34  4481.34

 Zero-point correction=                           0.084461 (Hartree/Particle)
 Thermal correction to Energy=                    0.090240
 Thermal correction to Enthalpy=                  0.091184
 Thermal correction to Gibbs Free Energy=         0.057307
 Sum of electronic and zero-point Energies=           -155.805962
 Sum of electronic and thermal Energies=              -155.800183
 Sum of electronic and thermal Enthalpies=            -155.799239
 Sum of electronic and thermal Free Energies=         -155.833116

                     E (Thermal)             CV                S
                      KCal/Mol        Cal/Mol-Kelvin    Cal/Mol-Kelvin
 Total                   56.626             17.403             71.301
 Electronic               0.000              0.000              0.000
 Translational            0.889              2.981             37.884
 Rotational               0.889              2.981             19.818
 Vibrational             54.849             11.441             13.599
 Vibration     1          0.593              1.986              6.571
 Vibration     2          0.638              1.839              2.128
 Vibration     3          0.638              1.839              2.128
 Vibration     4          0.750              1.513              1.040
 Vibration     5          0.750              1.513              1.040

 Optimization completed.
    -- Stationary point found.
 Normal termination of Gaussian 16 at Sun Jun  2 16:35:49 2019.
