 Gaussian 16, Revision B.01,
 Gaussian 16:  ES64L-G16RevB.01 20-Dec-2017

 ----------------------------------------------------------------------
 # opt=(maxcyc=500,modredundant) uB2PLYPD3/cc-pvtz scf=maxcyc=500 nosym
 m
 ----------------------------------------------------------------------

 -------------------
 Title Card Required
 -------------------
 Symbolic Z-matrix:
 Charge =  0 Multiplicity = 1

 SCF Done:  E(UB2PLYPD3) =  -155.674706734     A.U. after   10 cycles
 E2(B2PLYPD3) =    -0.2157159909D+00 E(B2PLYPD3) =    -0.15589042272441D+03
 Optimization completed.
    -- Stationary point found.
 SCF Done:  E(UB2PLYPD3) =  -155.674716616     A.U. after    9 cycles
 E2(B2PLYPD3) =    -0.2157078889D+00 E(B2PLYPD3) =    -0.15589042450441D+03
 Optimization completed.
 SCF Done:  E(UB2PLYPD3) =  -155.674720961     A.U. after    9 cycles
 E2(B2PLYPD3) =    -0.2157080103D+00 E(B2PLYPD3) =    -0.15589042897116D+03
 SCF Done:  E(UB2PLYPD3) =  -155.674720872     A.U. after    5 cycles
 E2(B2PLYPD3) =    -0.2157080729D+00 E(B2PLYPD3) =    -0.15589042894436D+03
 SCF Done:  E(UB2PLYPD3) =  -155.674727302     A.U. after    8 cycles
 E2(B2PLYPD3) =    -0.2157078397D+00 E(B2PLYPD3) =    -0.15589043514210D+03
 SCF Done:  E(UB2PLYPD3) =  -155.674733524     A.U. after    8 cycles
 E2(B2PLYPD3) =    -0.2157075911D+00 E(B2PLYPD3) =    -0.15589044111527D+03
 SCF Done:  E(UB2PLYPD3) =  -155.674733076     A.U. after    6 cycles
 E2(B2PLYPD3) =    -0.2157076226D+00 E(B2PLYPD3) =    -0.15589044069880D+03
 SCF Done:  E(UB2PLYPD3) =  -155.674733552     A.U. after    3 cycles
 E2(B2PLYPD3) =    -0.2157075780D+00 E(B2PLYPD3) =    -0.15589044113026D+03
 SCF Done:  E(UB2PLYPD3) =  -155.674738134     A.U. after    9 cycles
 E2(B2PLYPD3) =    -0.2157074258D+00 E(B2PLYPD3) =    -0.15589044555994D+03
 SCF Done:  E(UB2PLYPD3) =  -155.674739836     A.U. after    8 cycles
 E2(B2PLYPD3) =    -0.2157073217D+00 E(B2PLYPD3) =    -0.15589044715747D+03
 E2(B2PLYPD3) =    -0.2157073977D+00 E(B2PLYPD3) =    -0.15589044556523D+03
 E2(B2PLYPD3) =    -0.2157076024D+00 E(B2PLYPD3) =    -0.15589044113184D+03
 E2(B2PLYPD3) =    -0.2157078768D+00 E(B2PLYPD3) =    -0.15589043514725D+03
 E2(B2PLYPD3) =    -0.2157081491D+00 E(B2PLYPD3) =    -0.15589042897834D+03
 E2(B2PLYPD3) =    -0.2157083437D+00 E(B2PLYPD3) =    -0.15589042451515D+03
 E2(B2PLYPD3) =    -0.2157084124D+00 E(B2PLYPD3) =    -0.15589042285607D+03
 E2(B2PLYPD3) =    -0.2157083350D+00 E(B2PLYPD3) =    -0.15589042451520D+03
 E2(B2PLYPD3) =    -0.2157081413D+00 E(B2PLYPD3) =    -0.15589042897913D+03
 E2(B2PLYPD3) =    -0.2157078707D+00 E(B2PLYPD3) =    -0.15589043514957D+03
 E2(B2PLYPD3) =    -0.2157075995D+00 E(B2PLYPD3) =    -0.15589044113479D+03
 E2(B2PLYPD3) =    -0.2157073976D+00 E(B2PLYPD3) =    -0.15589044556688D+03
 E2(B2PLYPD3) =    -0.2157073237D+00 E(B2PLYPD3) =    -0.15589044716238D+03
 E2(B2PLYPD3) =    -0.2157073952D+00 E(B2PLYPD3) =    -0.15589044556519D+03
 E2(B2PLYPD3) =    -0.2157076020D+00 E(B2PLYPD3) =    -0.15589044113289D+03
 E2(B2PLYPD3) =    -0.2157078767D+00 E(B2PLYPD3) =    -0.15589043514855D+03
 E2(B2PLYPD3) =    -0.2157081492D+00 E(B2PLYPD3) =    -0.15589042897973D+03
 E2(B2PLYPD3) =    -0.2157083437D+00 E(B2PLYPD3) =    -0.15589042451563D+03
 E2(B2PLYPD3) =    -0.2157084127D+00 E(B2PLYPD3) =    -0.15589042285558D+03
 E2(B2PLYPD3) =    -0.2157083352D+00 E(B2PLYPD3) =    -0.15589042451521D+03
 E2(B2PLYPD3) =    -0.2157081414D+00 E(B2PLYPD3) =    -0.15589042898005D+03
 SCF Done:  E(UB2PLYPD3) =  -155.674727280     A.U. after    8 cycles
 E2(B2PLYPD3) =    -0.2157078705D+00 E(B2PLYPD3) =    -0.15589043515011D+03
 SCF Done:  E(UB2PLYPD3) =  -155.674733536     A.U. after    8 cycles
 E2(B2PLYPD3) =    -0.2157075995D+00 E(B2PLYPD3) =    -0.15589044113505D+03
 SCF Done:  E(UB2PLYPD3) =  -155.674738169     A.U. after    8 cycles
 E2(B2PLYPD3) =    -0.2157073975D+00 E(B2PLYPD3) =    -0.15589044556698D+03
 SCF Done:  E(UB2PLYPD3) =  -155.674739838     A.U. after    8 cycles
 E2(B2PLYPD3) =    -0.2157073239D+00 E(B2PLYPD3) =    -0.15589044716227D+03
 SCF Done:  E(UB2PLYPD3) =  -155.674738170     A.U. after    8 cycles
 E2(B2PLYPD3) =    -0.2157073952D+00 E(B2PLYPD3) =    -0.15589044556516D+03
 SCF Done:  E(UB2PLYPD3) =  -155.674733530     A.U. after    8 cycles
 E2(B2PLYPD3) =    -0.2157076023D+00 E(B2PLYPD3) =    -0.15589044113263D+03
 SCF Done:  E(UB2PLYPD3) =  -155.674727271     A.U. after    8 cycles
 E2(B2PLYPD3) =    -0.2157078767D+00 E(B2PLYPD3) =    -0.15589043514787D+03
 SCF Done:  E(UB2PLYPD3) =  -155.674720829     A.U. after    8 cycles
 E2(B2PLYPD3) =    -0.2157081494D+00 E(B2PLYPD3) =    -0.15589042897878D+03
 SCF Done:  E(UB2PLYPD3) =  -155.674716172     A.U. after    8 cycles
 E2(B2PLYPD3) =    -0.2157083435D+00 E(B2PLYPD3) =    -0.15589042451500D+03
    -- Stationary point found.
 SCF Done:  E(UB2PLYPD3) =  -155.674714444     A.U. after    8 cycles
 E2(B2PLYPD3) =    -0.2157084125D+00 E(B2PLYPD3) =    -0.15589042285611D+03
 Optimization completed.
    -- Stationary point found.

                          Input orientation:
 ---------------------------------------------------------------------
 Center     Atomic      Atomic             Coordinates (Angstroms)
 Number     Number       Type             X           Y           Z
 ---------------------------------------------------------------------
      1          6           0       -0.000026    0.000004    2.061180
      2          6           0       -0.000048   -0.000013    0.603068
      3          6           0        0.000004    0.000019   -0.603068
      4          6           0        0.000014    0.000022   -2.061180
      5          1           0       -0.880639   -0.508552   -2.451992
      6          1           0       -0.000094    1.016946   -2.452050
      7          1           0        0.880718   -0.508446   -2.452004
      8          1           0       -0.000027   -1.016935    2.452020
      9          1           0        0.880746    0.508391    2.451969
     10          1           0       -0.880648    0.508563    2.452057
 ---------------------------------------------------------------------

 Alpha  occ. eigenvalues --  -10.62746 -10.62746 -10.60235 -10.59937  -0.89886
 Alpha  occ. eigenvalues --   -0.85274  -0.77152  -0.55277  -0.50312  -0.49892
 Alpha  occ. eigenvalues --   -0.49891  -0.48443  -0.48442  -0.29738  -0.29738
 Alpha virt. eigenvalues --    0.08459   0.09514   0.11200   0.11200   0.15604
 Alpha virt. eigenvalues --    0.15604   0.18980   0.18981   0.21592   0.22965
 Alpha virt. eigenvalues --    0.31964   0.31965   0.31999   0.32001   0.34384

  Beta  occ. eigenvalues --  -10.62746 -10.62746 -10.60235 -10.59937  -0.89886
  Beta  occ. eigenvalues --   -0.85274  -0.77152  -0.55277  -0.50312  -0.49892
  Beta  occ. eigenvalues --   -0.49891  -0.48443  -0.48442  -0.29738  -0.29738
  Beta virt. eigenvalues --    0.08459   0.09514   0.11200   0.11200   0.15604
  Beta virt. eigenvalues --    0.15604   0.18980   0.18981   0.21592   0.22965
  Beta virt. eigenvalues --    0.31964   0.31965   0.31999   0.32001   0.34384

 Mulliken charges and spin densities:
               1          2
     1  C   -0.331568  -0.000000
     2  C   -0.016687  -0.000000
     3  C   -0.016688   0.000000
     4  C   -0.331568   0.000000
     5  H    0.116083  -0.000000
     6  H    0.116088  -0.000000
     7  H    0.116085  -0.000000
     8  H    0.116085   0.000000
     9  H    0.116083   0.000000
    10  H    0.116088   0.000000
 Sum of Mulliken charges =  -0.00000   0.00000

 Dipole moment (field-independent basis, Debye):
    X=              0.0001    Y=             -0.0000    Z=              0.0000  Tot=              0.0001
 Quadrupole moment (field-independent basis, Debye-Ang):
   XX=            -25.8724   YY=            -25.8722   ZZ=            -19.1338
   XY=             -0.0002   XZ=              0.0001   YZ=              0.0000

 Normal termination of Gaussian 16 at Sun Jun  2 17:12:58 2019.
