 Gaussian 16, Revision B.01,
 Gaussian 16:  ES64L-G16RevB.01 20-Dec-2017

 -----------------------------------------------
 # opt=maxcyc=500 freq=noraman uB2PLYPD3/cc-pvtz
 -----------------------------------------------

 -------------------
 Title Card Required
 -------------------
 Symbolic Z-matrix:
 Charge =  0 Multiplicity = 1

 SCF Done:  E(UB2PLYPD3) =  -155.674739843     A.U. after   10 cycles
 E2(B2PLYPD3) =    -0.2157073415D+00 E(B2PLYPD3) =    -0.15589044718494D+03
 Optimization completed.
    -- Stationary point found.
 Normal termination of Gaussian 16 at Sun Jun  2 17:18:41 2019.

 ----------------------------------------------------------------------
 #N Geom=AllCheck Guess=TCheck SCRF=Check GenChk UB2PLYPD3(FC)/CC-pVTZ
 Freq
 ----------------------------------------------------------------------

 Structure from the checkpoint file:  "/localscratch/339767/Gau-15636.chk"
 -------------------
 Title Card Required
 -------------------
 Charge =  0 Multiplicity = 1

                         Standard orientation:
 ---------------------------------------------------------------------
 Center     Atomic      Atomic             Coordinates (Angstroms)
 Number     Number       Type             X           Y           Z
 ---------------------------------------------------------------------
      1          6           0       -2.061114    0.000087    0.000040
      2          6           0       -0.603066    0.000059    0.000017
      3          6           0        0.603066   -0.000037   -0.000028
      4          6           0        2.061114   -0.000100   -0.000034
      5          1           0        2.451935   -0.575104   -0.838824
      6          1           0        2.451943    1.013821   -0.078597
      7          1           0        2.451919   -0.438948    0.917369
      8          1           0       -2.451927   -0.438725    0.917458
      9          1           0       -2.451943    1.013984   -0.078733
     10          1           0       -2.451926   -0.575089   -0.838645
 ---------------------------------------------------------------------

 SCF Done:  E(UB2PLYPD3) =  -155.674739843     A.U. after    1 cycles
 E2(B2PLYPD3) =    -0.2157073405D+00 E(B2PLYPD3) =    -0.15589044718396D+03
 E2(B2PLYPD3) =    -0.2157073405D+00 E(B2PLYPD3) =    -0.15589044718396D+03

 The electronic state is 1-A.
 Alpha  occ. eigenvalues --  -10.62748 -10.62748 -10.60236 -10.59938  -0.89889
 Alpha  occ. eigenvalues --   -0.85276  -0.77153  -0.55279  -0.50315  -0.49896
 Alpha  occ. eigenvalues --   -0.49896  -0.48442  -0.48442  -0.29740  -0.29740
 Alpha virt. eigenvalues --    0.08448   0.09523   0.11326   0.11326   0.15243
 Alpha virt. eigenvalues --    0.15243   0.19255   0.19255   0.21591   0.22970
 Alpha virt. eigenvalues --    0.31808   0.31809   0.32280   0.32280   0.34378

  Beta  occ. eigenvalues --  -10.62748 -10.62748 -10.60236 -10.59938  -0.89889
  Beta  occ. eigenvalues --   -0.85276  -0.77153  -0.55279  -0.50315  -0.49896
  Beta  occ. eigenvalues --   -0.49896  -0.48442  -0.48442  -0.29740  -0.29740
  Beta virt. eigenvalues --    0.08448   0.09523   0.11326   0.11326   0.15243
  Beta virt. eigenvalues --    0.15243   0.19255   0.19255   0.21591   0.22970
  Beta virt. eigenvalues --    0.31808   0.31809   0.32280   0.32280   0.34378

 Mulliken charges and spin densities:
               1          2
     1  C   -0.331201  -0.000000
     2  C   -0.016461  -0.000000
     3  C   -0.016461   0.000000
     4  C   -0.331201  -0.000000
     5  H    0.115889   0.000000
     6  H    0.115885  -0.000000
     7  H    0.115888   0.000000
     8  H    0.115887   0.000000
     9  H    0.115889  -0.000000
    10  H    0.115885   0.000000
 Sum of Mulliken charges =  -0.00000   0.00000

 Dipole moment (field-independent basis, Debye):
    X=              0.0000    Y=             -0.0000    Z=              0.0000  Tot=              0.0000
 Quadrupole moment (field-independent basis, Debye-Ang):
   XX=            -19.1367   YY=            -25.8735   ZZ=            -25.8735
   XY=             -0.0002   XZ=             -0.0000   YZ=             -0.0000

  Exact polarizability:  69.296  -0.002  33.803  -0.001  -0.000  33.803
 Approx polarizability:  75.068  -0.002  39.625  -0.001   0.000  39.625

                      1                      2                      3
                      A                      A                      A
 Frequencies --     22.9634               200.1069               200.1311
 Red. masses --      1.0078                 2.8091                 2.8091
 Frc consts  --      0.0003                 0.0663                 0.0663
 IR Inten    --      0.0000                11.1317                11.1314

                      4                      5                      6
                      A                      A                      A
 Frequencies --    378.8956               378.9013               724.4607
 Red. masses --      4.1725                 4.1727                 3.6506
 Frc consts  --      0.3529                 0.3530                 1.1289
 IR Inten    --      0.0000                 0.0000                 0.0000

                      7                      8                      9
                      A                      A                      A
 Frequencies --   1054.4423              1054.4541              1074.1660
 Red. masses --      1.4042                 1.4041                 1.3682
 Frc consts  --      0.9198                 0.9198                 0.9301
 IR Inten    --      0.0000                 0.0000                 1.0166

                     10                     11                     12
                      A                      A                      A
 Frequencies --   1074.1784              1176.4987              1425.6399
 Red. masses --      1.3682                 4.4305                 1.2926
 Frc consts  --      0.9301                 3.6132                 1.5479
 IR Inten    --      1.0165                 0.0379                 3.9393

                     13                     14                     15
                      A                      A                      A
 Frequencies --   1429.4324              1496.3025              1496.3092
 Red. masses --      1.2121                 1.0406                 1.0406
 Frc consts  --      1.4592                 1.3727                 1.3727
 IR Inten    --      0.0000                 0.0155                 0.0156

                     16                     17                     18
                      A                      A                      A
 Frequencies --   1496.6856              1496.6918              2334.0619
 Red. masses --      1.0382                 1.0382                11.7631
 Frc consts  --      1.3702                 1.3702                37.7570
 IR Inten    --     13.3253                13.3251                 0.0000

                     19                     20                     21
                      A                      A                      A
 Frequencies --   3051.0231              3051.7213              3114.4976
 Red. masses --      1.0339                 1.0343                 1.1011
 Frc consts  --      5.6706                 5.6755                 6.2927
 IR Inten    --      0.0000                58.0917                21.2441

                     22                     23                     24
                      A                      A                      A
 Frequencies --   3114.5241              3115.3649              3115.3912
 Red. masses --      1.1011                 1.1010                 1.1010
 Frc consts  --      6.2928                 6.2960                 6.2961
 IR Inten    --     21.2435                 0.0353                 0.0326

 - Thermochemistry -
 -------------------
 Temperature   298.150 Kelvin.  Pressure   1.00000 Atm.
 Atom     1 has atomic number  6 and mass  12.00000

 Molecular mass:    54.04695 amu.
 Principal axes and moments of inertia in atomic units:
                           1         2         3
     Eigenvalues --    22.33273 536.25288 536.25288
           X            1.00000   0.00000   0.00005
           Y           -0.00004  -0.36051   0.93276
           Z           -0.00002   0.93276   0.36051
 This molecule is an asymmetric top.
 Rotational symmetry number  1.
 Rotational temperatures (Kelvin)      3.87834     0.16152     0.16152
 Rotational constants (GHZ):          80.81147     3.36547     3.36547
 Zero-point vibrational energy     221768.8 (Joules/Mol)
                                   53.00401 (Kcal/Mol)
 Warning -- explicit consideration of   5 degrees of freedom as
           vibrations may cause significant error
 Vibrational temperatures:     33.04   287.91   287.94   545.15   545.15
          (Kelvin)           1042.34  1517.11  1517.12  1545.49  1545.50
                             1692.72  2051.18  2056.63  2152.85  2152.86
                             2153.40  2153.41  3358.19  4389.74  4390.75
                             4481.07  4481.11  4482.32  4482.35

 Zero-point correction=                           0.084467 (Hartree/Particle)
 Thermal correction to Energy=                    0.090244
 Thermal correction to Enthalpy=                  0.091189
 Thermal correction to Gibbs Free Energy=         0.055713
 Sum of electronic and zero-point Energies=           -155.805980
 Sum of electronic and thermal Energies=              -155.800203
 Sum of electronic and thermal Enthalpies=            -155.799259
 Sum of electronic and thermal Free Energies=         -155.834734

                     E (Thermal)             CV                S
                      KCal/Mol        Cal/Mol-Kelvin    Cal/Mol-Kelvin
 Total                   56.629             17.409             74.665
 Electronic               0.000              0.000              0.000
 Translational            0.889              2.981             37.884
 Rotational               0.889              2.981             23.378
 Vibrational             54.852             11.447             13.404
 Vibration     1          0.593              1.985              6.360
 Vibration     2          0.638              1.840              2.132
 Vibration     3          0.638              1.840              2.132
 Vibration     4          0.749              1.515              1.044
 Vibration     5          0.749              1.515              1.044

 Optimization completed.
    -- Stationary point found.
 Normal termination of Gaussian 16 at Sun Jun  2 17:27:10 2019.
