 Gaussian 16, Revision B.01,
 Gaussian 16:  ES64L-G16RevB.01 20-Dec-2017

 -----------------------------------------------
 # opt=maxcyc=500 freq=noraman uB2PLYPD3/cc-pvtz
 -----------------------------------------------

 -------------------
 Title Card Required
 -------------------
 Symbolic Z-matrix:
 Charge =  0 Multiplicity = 2

 SCF Done:  E(UB2PLYPD3) =  -156.232185606     A.U. after   18 cycles
 E2(B2PLYPD3) =    -0.2113659230D+00 E(B2PLYPD3) =    -0.15644355152853D+03
 SCF Done:  E(UB2PLYPD3) =  -156.237454335     A.U. after   14 cycles
 E2(B2PLYPD3) =    -0.2114132351D+00 E(B2PLYPD3) =    -0.15644886757046D+03
 SCF Done:  E(UB2PLYPD3) =  -156.238278480     A.U. after   14 cycles
 E2(B2PLYPD3) =    -0.2114130365D+00 E(B2PLYPD3) =    -0.15644969151619D+03
 SCF Done:  E(UB2PLYPD3) =  -156.238321408     A.U. after   13 cycles
 E2(B2PLYPD3) =    -0.2114426878D+00 E(B2PLYPD3) =    -0.15644976409536D+03
 SCF Done:  E(UB2PLYPD3) =  -156.238337832     A.U. after    8 cycles
 E2(B2PLYPD3) =    -0.2114317531D+00 E(B2PLYPD3) =    -0.15644976958540D+03
 SCF Done:  E(UB2PLYPD3) =  -156.238341154     A.U. after    8 cycles
 E2(B2PLYPD3) =    -0.2114292104D+00 E(B2PLYPD3) =    -0.15644977036456D+03
 Optimization completed.
    -- Stationary point found.
 Normal termination of Gaussian 16 at Fri May 31 21:38:45 2019.

 ----------------------------------------------------------------------
 #N Geom=AllCheck Guess=TCheck SCRF=Check GenChk UB2PLYPD3(FC)/CC-pVTZ
 Freq
 ----------------------------------------------------------------------

 Structure from the checkpoint file:  "/localscratch/339542/Gau-23149.chk"
 -------------------
 Title Card Required
 -------------------
 Charge =  0 Multiplicity = 2

                         Standard orientation:
 ---------------------------------------------------------------------
 Center     Atomic      Atomic             Coordinates (Angstroms)
 Number     Number       Type             X           Y           Z
 ---------------------------------------------------------------------
      1          6           0       -0.562556    0.400160   -0.000017
      2          6           0        0.553996   -0.281931   -0.000034
      3          6           0        2.002695   -0.046015    0.000014
      4          6           0       -1.950804   -0.174194    0.000012
      5          1           0       -0.492207    1.491830    0.000011
      6          1           0        2.215600    1.029665   -0.000077
      7          1           0        2.476932   -0.481116   -0.879587
      8          1           0       -2.507542    0.156627    0.877675
      9          1           0       -2.507604    0.156698   -0.877584
     10          1           0       -1.922005   -1.260868   -0.000032
     11          1           0        2.476838   -0.480949    0.879749
 ---------------------------------------------------------------------

 SCF Done:  E(UB2PLYPD3) =  -156.238341154     A.U. after    1 cycles
 E2(B2PLYPD3) =    -0.2114291956D+00 E(B2PLYPD3) =    -0.15644977034977D+03
 E2(B2PLYPD3) =    -0.2114291956D+00 E(B2PLYPD3) =    -0.15644977034977D+03

 The electronic state is 2-A.
 Alpha  occ. eigenvalues --  -10.62815 -10.62061 -10.60976 -10.60590  -0.92060
 Alpha  occ. eigenvalues --   -0.84573  -0.75378  -0.59953  -0.52431  -0.50508
 Alpha  occ. eigenvalues --   -0.49348  -0.47073  -0.44434  -0.43386  -0.29580
 Alpha  occ. eigenvalues --   -0.27550
 Alpha virt. eigenvalues --    0.08882   0.09054   0.10015   0.12581   0.15699
 Alpha virt. eigenvalues --    0.16023   0.16656   0.17137   0.21605   0.23719
 Alpha virt. eigenvalues --    0.28868   0.30658   0.31875   0.33113   0.35658

  Beta  occ. eigenvalues --  -10.62069 -10.61286 -10.60822 -10.60467  -0.90054
  Beta  occ. eigenvalues --   -0.83972  -0.74427  -0.57300  -0.51353  -0.48906
  Beta  occ. eigenvalues --   -0.48333  -0.47191  -0.43745  -0.42726  -0.28793
  Beta virt. eigenvalues --    0.00726   0.09526   0.10044   0.10580   0.12824
  Beta virt. eigenvalues --    0.15935   0.16062   0.17057   0.17470   0.22136
  Beta virt. eigenvalues --    0.23970   0.28945   0.30847   0.32347   0.33333

 Mulliken charges and spin densities:
               1          2
     1  C   -0.162540  -0.183406
     2  C   -0.032837   1.027409
     3  C   -0.276852  -0.038034
     4  C   -0.264079   0.035249
     5  H    0.124044   0.081942
     6  H    0.098605   0.065037
     7  H    0.109422   0.007394
     8  H    0.097030  -0.004067
     9  H    0.097030  -0.004066
    10  H    0.100755   0.005150
    11  H    0.109422   0.007392
 Sum of Mulliken charges =  -0.00000   1.00000

 Dipole moment (field-independent basis, Debye):
    X=              0.3899    Y=              0.4857    Z=              0.0001  Tot=              0.6228
 Quadrupole moment (field-independent basis, Debye-Ang):
   XX=            -23.5128   YY=            -26.0871   ZZ=            -27.2840
   XY=             -0.2094   XZ=             -0.0000   YZ=              0.0000

  Exact polarizability:  68.357  -3.699  44.250  -0.000   0.000  35.814
 Approx polarizability:  64.908  -7.154  51.547  -0.000   0.000  42.509

                      1                      2                      3
                      A                      A                      A
 Frequencies --    158.3742               198.1979               217.4699
 Red. masses --      1.0164                 1.6084                 2.5760
 Frc consts  --      0.0150                 0.0372                 0.0718
 IR Inten    --      0.4057                 1.9359                 3.9807

                      4                      5                      6
                      A                      A                      A
 Frequencies --    246.9352               465.8445               743.6999
 Red. masses --      2.1774                 2.9168                 1.2472
 Frc consts  --      0.0782                 0.3729                 0.4064
 IR Inten    --      8.1859                 0.5802                 9.8766

                      7                      8                      9
                      A                      A                      A
 Frequencies --    851.2633               992.2371              1055.6001
 Red. masses --      2.2114                 1.2352                 1.4563
 Frc consts  --      0.9442                 0.7165                 0.9561
 IR Inten    --      1.1861                 2.9386                 1.5386

                     10                     11                     12
                      A                      A                      A
 Frequencies --   1075.5085              1076.0638              1126.7511
 Red. masses --      1.4222                 3.4974                 2.0676
 Frc consts  --      0.9692                 2.3860                 1.5466
 IR Inten    --      0.2407                 7.1110                 1.6709

                     13                     14                     15
                      A                      A                      A
 Frequencies --   1300.8697              1406.3893              1416.6689
 Red. masses --      1.2899                 1.2434                 1.2407
 Frc consts  --      1.2861                 1.4490                 1.4671
 IR Inten    --      2.7855                 1.9360                 1.3043

                     16                     17                     18
                      A                      A                      A
 Frequencies --   1469.8776              1491.5132              1498.5373
 Red. masses --      1.0402                 1.0496                 1.0435
 Frc consts  --      1.3242                 1.3757                 1.3806
 IR Inten    --      7.1330                 6.8336                 5.5766

                     19                     20                     21
                      A                      A                      A
 Frequencies --   1504.0824              1789.9965              2996.1423
 Red. masses --      1.0488                 8.9793                 1.0491
 Frc consts  --      1.3979                16.9510                 5.5486
 IR Inten    --      9.2985                 2.1899                23.6262

                     22                     23                     24
                      A                      A                      A
 Frequencies --   3030.5697              3045.8947              3082.5642
 Red. masses --      1.0789                 1.0384                 1.0815
 Frc consts  --      5.8384                 5.6758                 6.0547
 IR Inten    --     29.8632                30.2720                17.8609

                     25                     26                     27
                      A                      A                      A
 Frequencies --   3097.6099              3108.4634              3140.3916
 Red. masses --      1.1004                 1.1007                 1.1007
 Frc consts  --      6.2211                 6.2665                 6.3960
 IR Inten    --     22.1064                10.1127                17.8346

 - Thermochemistry -
 -------------------
 Temperature   298.150 Kelvin.  Pressure   1.00000 Atm.
 Atom     1 has atomic number  6 and mass  12.00000

 Molecular mass:    55.05478 amu.
 Principal axes and moments of inertia in atomic units:
                           1         2         3
     Eigenvalues --    42.12096 494.05087 513.94364
           X            0.99998   0.00626   0.00000
           Y           -0.00626   0.99998  -0.00000
           Z           -0.00000   0.00000   1.00000
 This molecule is an asymmetric top.
 Rotational symmetry number  1.
 Rotational temperatures (Kelvin)      2.05631     0.17531     0.16853
 Rotational constants (GHZ):          42.84663     3.65295     3.51155
 Zero-point vibrational energy     248748.6 (Joules/Mol)
                                   59.45234 (Kcal/Mol)
 Warning -- explicit consideration of   5 degrees of freedom as
           vibrations may cause significant error
 Vibrational temperatures:    227.87   285.16   312.89   355.28   670.25
          (Kelvin)           1070.02  1224.78  1427.61  1518.77  1547.42
                             1548.22  1621.14  1871.66  2023.48  2038.27
                             2114.83  2145.95  2156.06  2164.04  2575.41
                             4310.78  4360.31  4382.36  4435.12  4456.77
                             4472.39  4518.32

 Zero-point correction=                           0.094743 (Hartree/Particle)
 Thermal correction to Energy=                    0.100397
 Thermal correction to Enthalpy=                  0.101341
 Thermal correction to Gibbs Free Energy=         0.066510
 Sum of electronic and zero-point Energies=           -156.355027
 Sum of electronic and thermal Energies=              -156.349373
 Sum of electronic and thermal Enthalpies=            -156.348429
 Sum of electronic and thermal Free Energies=         -156.383260

                     E (Thermal)             CV                S
                      KCal/Mol        Cal/Mol-Kelvin    Cal/Mol-Kelvin
 Total                   63.000             18.178             73.308
 Electronic               0.000              0.000              1.377
 Translational            0.889              2.981             37.939
 Rotational               0.889              2.981             23.885
 Vibrational             61.223             12.216             10.107
 Vibration     1          0.621              1.893              2.569
 Vibration     2          0.637              1.842              2.150
 Vibration     3          0.646              1.814              1.980
 Vibration     4          0.661              1.768              1.752
 Vibration     5          0.823              1.326              0.749

 Optimization completed.
    -- Stationary point found.
 Normal termination of Gaussian 16 at Fri May 31 21:50:34 2019.
