 Gaussian 16, Revision B.01,
 Gaussian 16:  ES64L-G16RevB.01 20-Dec-2017

 ----------------------------------------------------------------------
 # opt=(maxcyc=500,modredundant) uB2PLYPD3/cc-pvtz scf=maxcyc=500 nosym
 m
 ----------------------------------------------------------------------

 -------------------
 Title Card Required
 -------------------
 Symbolic Z-matrix:
 Charge =  0 Multiplicity = 1

 SCF Done:  E(UB2PLYPD3) =  -156.906049092     A.U. after   10 cycles
 E2(B2PLYPD3) =    -0.2235927270D+00 E(B2PLYPD3) =    -0.15712964181847D+03
 SCF Done:  E(UB2PLYPD3) =  -156.906185223     A.U. after    7 cycles
 E2(B2PLYPD3) =    -0.2235063819D+00 E(B2PLYPD3) =    -0.15712969160481D+03
 Optimization completed.
    -- Stationary point found.
 SCF Done:  E(UB2PLYPD3) =  -156.905959391     A.U. after    9 cycles
 E2(B2PLYPD3) =    -0.2235149468D+00 E(B2PLYPD3) =    -0.15712947433774D+03
 SCF Done:  E(UB2PLYPD3) =  -156.905975748     A.U. after    8 cycles
 E2(B2PLYPD3) =    -0.2235169673D+00 E(B2PLYPD3) =    -0.15712949271580D+03
 SCF Done:  E(UB2PLYPD3) =  -156.905979585     A.U. after    7 cycles
 E2(B2PLYPD3) =    -0.2235171853D+00 E(B2PLYPD3) =    -0.15712949677039D+03
 SCF Done:  E(UB2PLYPD3) =  -156.905979517     A.U. after    6 cycles
 E2(B2PLYPD3) =    -0.2235174179D+00 E(B2PLYPD3) =    -0.15712949693536D+03
 Optimization completed.
 SCF Done:  E(UB2PLYPD3) =  -156.905399841     A.U. after    9 cycles
 E2(B2PLYPD3) =    -0.2235336332D+00 E(B2PLYPD3) =    -0.15712893347372D+03
 SCF Done:  E(UB2PLYPD3) =  -156.905413268     A.U. after    8 cycles
 E2(B2PLYPD3) =    -0.2235357912D+00 E(B2PLYPD3) =    -0.15712894905905D+03
 SCF Done:  E(UB2PLYPD3) =  -156.905413379     A.U. after    6 cycles
 E2(B2PLYPD3) =    -0.2235358540D+00 E(B2PLYPD3) =    -0.15712894923261D+03
 SCF Done:  E(UB2PLYPD3) =  -156.905413305     A.U. after    6 cycles
 E2(B2PLYPD3) =    -0.2235359781D+00 E(B2PLYPD3) =    -0.15712894928296D+03
 E2(B2PLYPD3) =    -0.2235577906D+00 E(B2PLYPD3) =    -0.15712815848272D+03
 E2(B2PLYPD3) =    -0.2235597731D+00 E(B2PLYPD3) =    -0.15712816673136D+03
 E2(B2PLYPD3) =    -0.2235820899D+00 E(B2PLYPD3) =    -0.15712733289319D+03
 E2(B2PLYPD3) =    -0.2235827310D+00 E(B2PLYPD3) =    -0.15712734139868D+03
 E2(B2PLYPD3) =    -0.2235827028D+00 E(B2PLYPD3) =    -0.15712734166909D+03
 E2(B2PLYPD3) =    -0.2235985585D+00 E(B2PLYPD3) =    -0.15712669180281D+03
 E2(B2PLYPD3) =    -0.2235957649D+00 E(B2PLYPD3) =    -0.15712671328578D+03
 E2(B2PLYPD3) =    -0.2236019380D+00 E(B2PLYPD3) =    -0.15712645820029D+03
 E2(B2PLYPD3) =    -0.2235989128D+00 E(B2PLYPD3) =    -0.15712649536164D+03
 E2(B2PLYPD3) =    -0.2235941499D+00 E(B2PLYPD3) =    -0.15712673360308D+03
 E2(B2PLYPD3) =    -0.2235550645D+00 E(B2PLYPD3) =    -0.15712809869321D+03
 E2(B2PLYPD3) =    -0.2235571392D+00 E(B2PLYPD3) =    -0.15712810687145D+03
 E2(B2PLYPD3) =    -0.2235767287D+00 E(B2PLYPD3) =    -0.15712729095334D+03
 E2(B2PLYPD3) =    -0.2235785480D+00 E(B2PLYPD3) =    -0.15712729871643D+03
 E2(B2PLYPD3) =    -0.2235923099D+00 E(B2PLYPD3) =    -0.15712668543986D+03
 E2(B2PLYPD3) =    -0.2235933617D+00 E(B2PLYPD3) =    -0.15712669972058D+03
 E2(B2PLYPD3) =    -0.2235981117D+00 E(B2PLYPD3) =    -0.15712647375200D+03
 E2(B2PLYPD3) =    -0.2235993558D+00 E(B2PLYPD3) =    -0.15712649573991D+03
 E2(B2PLYPD3) =    -0.2235942625D+00 E(B2PLYPD3) =    -0.15712673188344D+03
 E2(B2PLYPD3) =    -0.2235968919D+00 E(B2PLYPD3) =    -0.15712675309675D+03
 SCF Done:  E(UB2PLYPD3) =  -156.903790027     A.U. after   10 cycles
 E2(B2PLYPD3) =    -0.2235827058D+00 E(B2PLYPD3) =    -0.15712737273285D+03
 SCF Done:  E(UB2PLYPD3) =  -156.903799516     A.U. after    8 cycles
 E2(B2PLYPD3) =    -0.2235854729D+00 E(B2PLYPD3) =    -0.15712738498928D+03
 SCF Done:  E(UB2PLYPD3) =  -156.904623444     A.U. after    9 cycles
 E2(B2PLYPD3) =    -0.2235651166D+00 E(B2PLYPD3) =    -0.15712818856044D+03
 SCF Done:  E(UB2PLYPD3) =  -156.904629696     A.U. after    7 cycles
 E2(B2PLYPD3) =    -0.2235654575D+00 E(B2PLYPD3) =    -0.15712819515363D+03
 SCF Done:  E(UB2PLYPD3) =  -156.905407502     A.U. after    9 cycles
 E2(B2PLYPD3) =    -0.2235441883D+00 E(B2PLYPD3) =    -0.15712895169021D+03
 SCF Done:  E(UB2PLYPD3) =  -156.905420732     A.U. after    8 cycles
 E2(B2PLYPD3) =    -0.2235412043D+00 E(B2PLYPD3) =    -0.15712896193592D+03
 SCF Done:  E(UB2PLYPD3) =  -156.905957277     A.U. after    9 cycles
 E2(B2PLYPD3) =    -0.2235253137D+00 E(B2PLYPD3) =    -0.15712948259057D+03
 SCF Done:  E(UB2PLYPD3) =  -156.905980684     A.U. after    8 cycles
 E2(B2PLYPD3) =    -0.2235204147D+00 E(B2PLYPD3) =    -0.15712950109892D+03
    -- Stationary point found.
 SCF Done:  E(UB2PLYPD3) =  -156.906155464     A.U. after   10 cycles
 E2(B2PLYPD3) =    -0.2235149797D+00 E(B2PLYPD3) =    -0.15712967044385D+03
 SCF Done:  E(UB2PLYPD3) =  -156.906183453     A.U. after    8 cycles
 E2(B2PLYPD3) =    -0.2235109288D+00 E(B2PLYPD3) =    -0.15712969438170D+03
 Optimization completed.
    -- Stationary point found.

                          Input orientation:
 ---------------------------------------------------------------------
 Center     Atomic      Atomic             Coordinates (Angstroms)
 Number     Number       Type             X           Y           Z
 ---------------------------------------------------------------------
      1          6           0       -0.486341    0.117407    0.438661
      2          6           0        0.486176   -0.117335   -0.438652
      3          6           0        1.942439   -0.199692   -0.103090
      4          6           0       -1.942360    0.199699    0.103088
      5          1           0       -0.220064    0.262557    1.481232
      6          1           0        0.219829   -0.262713   -1.481150
      7          1           0        2.111494   -0.042042    0.960890
      8          1           0        2.354664   -1.173722   -0.371909
      9          1           0        2.516889    0.547916   -0.652680
     10          1           0       -2.516857   -0.547777    0.652868
     11          1           0       -2.354670    1.173792    0.371782
     12          1           0       -2.111198    0.041911   -0.960919
 ---------------------------------------------------------------------

 Alpha  occ. eigenvalues --  -10.60800 -10.60674 -10.60382 -10.60381  -0.91431
 Alpha  occ. eigenvalues --   -0.83498  -0.74124  -0.62929  -0.51237  -0.51045
 Alpha  occ. eigenvalues --   -0.48162  -0.46622  -0.43581  -0.42308  -0.39919
 Alpha  occ. eigenvalues --   -0.28552
 Alpha virt. eigenvalues --    0.08506   0.08961   0.09908   0.11203   0.15427
 Alpha virt. eigenvalues --    0.15636   0.16164   0.17459   0.18476   0.23378
 Alpha virt. eigenvalues --    0.26662   0.28865   0.31605   0.33238   0.33542

  Beta  occ. eigenvalues --  -10.60800 -10.60674 -10.60382 -10.60381  -0.91431
  Beta  occ. eigenvalues --   -0.83498  -0.74124  -0.62929  -0.51237  -0.51045
  Beta  occ. eigenvalues --   -0.48162  -0.46622  -0.43581  -0.42308  -0.39919
  Beta  occ. eigenvalues --   -0.28552
  Beta virt. eigenvalues --    0.08506   0.08961   0.09908   0.11203   0.15427
  Beta virt. eigenvalues --    0.15636   0.16164   0.17459   0.18476   0.23378
  Beta virt. eigenvalues --    0.26662   0.28865   0.31605   0.33238   0.33542

 Mulliken charges and spin densities:
               1          2
     1  C   -0.134299   0.000000
     2  C   -0.134409  -0.000000
     3  C   -0.271163  -0.000000
     4  C   -0.271117  -0.000000
     5  H    0.119714  -0.000000
     6  H    0.119712   0.000000
     7  H    0.093727   0.000000
     8  H    0.096041   0.000000
     9  H    0.096042   0.000000
    10  H    0.096023  -0.000000
    11  H    0.096019   0.000000
    12  H    0.093711  -0.000000
 Sum of Mulliken charges =  -0.00000   0.00000

 Dipole moment (field-independent basis, Debye):
    X=             -0.0001    Y=             -0.0001    Z=              0.0002  Tot=              0.0002
 Quadrupole moment (field-independent basis, Debye-Ang):
   XX=            -25.9260   YY=            -28.1483   ZZ=            -25.7273
   XY=             -0.2711   XZ=             -0.3231   YZ=              0.4420

 Normal termination of Gaussian 16 at Sat Jun  1 00:27:14 2019.
