 Gaussian 16, Revision B.01,
 Gaussian 16:  ES64L-G16RevB.01 20-Dec-2017

 -----------------------------------------------
 # opt=maxcyc=500 freq=noraman uB2PLYPD3/cc-pvtz
 -----------------------------------------------

 -------------------
 Title Card Required
 -------------------
 Symbolic Z-matrix:
 Charge =  0 Multiplicity = 2

 SCF Done:  E(UB2PLYPD3) =  -156.246077967     A.U. after   18 cycles
 E2(B2PLYPD3) =    -0.2110593328D+00 E(B2PLYPD3) =    -0.15645713729985D+03
 SCF Done:  E(UB2PLYPD3) =  -156.261562155     A.U. after   17 cycles
 E2(B2PLYPD3) =    -0.2103489553D+00 E(B2PLYPD3) =    -0.15647191111040D+03
 SCF Done:  E(UB2PLYPD3) =  -156.268672911     A.U. after   17 cycles
 E2(B2PLYPD3) =    -0.2097102949D+00 E(B2PLYPD3) =    -0.15647838320637D+03
 SCF Done:  E(UB2PLYPD3) =  -156.271766451     A.U. after   15 cycles
 E2(B2PLYPD3) =    -0.2101035793D+00 E(B2PLYPD3) =    -0.15648187002988D+03
 SCF Done:  E(UB2PLYPD3) =  -156.273243083     A.U. after   13 cycles
 E2(B2PLYPD3) =    -0.2099368280D+00 E(B2PLYPD3) =    -0.15648317991105D+03
 SCF Done:  E(UB2PLYPD3) =  -156.273364038     A.U. after   13 cycles
 E2(B2PLYPD3) =    -0.2099306069D+00 E(B2PLYPD3) =    -0.15648329464526D+03
 SCF Done:  E(UB2PLYPD3) =  -156.273436380     A.U. after   11 cycles
 E2(B2PLYPD3) =    -0.2099443992D+00 E(B2PLYPD3) =    -0.15648338077940D+03
 SCF Done:  E(UB2PLYPD3) =  -156.273437184     A.U. after   10 cycles
 E2(B2PLYPD3) =    -0.2099458261D+00 E(B2PLYPD3) =    -0.15648338300985D+03
 SCF Done:  E(UB2PLYPD3) =  -156.273436656     A.U. after    9 cycles
 E2(B2PLYPD3) =    -0.2099465734D+00 E(B2PLYPD3) =    -0.15648338322950D+03
 Optimization completed.
    -- Stationary point found.
 Normal termination of Gaussian 16 at Fri May 31 21:19:24 2019.

 ----------------------------------------------------------------------
 #N Geom=AllCheck Guess=TCheck SCRF=Check GenChk UB2PLYPD3(FC)/CC-pVTZ
 Freq
 ----------------------------------------------------------------------

 Structure from the checkpoint file:  "/localscratch/339542/Gau-41063.chk"
 -------------------
 Title Card Required
 -------------------
 Charge =  0 Multiplicity = 2

                         Standard orientation:
 ---------------------------------------------------------------------
 Center     Atomic      Atomic             Coordinates (Angstroms)
 Number     Number       Type             X           Y           Z
 ---------------------------------------------------------------------
      1          6           0       -0.471465   -0.417560   -0.000195
      2          6           0        0.654462    0.380814   -0.000138
      3          6           0        1.953727   -0.081139    0.000132
      4          6           0       -1.868094    0.099702    0.000105
      5          1           0       -0.336144   -1.493065   -0.000278
      6          1           0        0.500711    1.455124   -0.000276
      7          1           0        2.166496   -1.140472    0.000269
      8          1           0        2.791032    0.597923    0.000135
      9          1           0       -2.423138   -0.250315   -0.873775
     10          1           0       -2.421943   -0.248269    0.875592
     11          1           0       -1.888795    1.188174   -0.001089
 ---------------------------------------------------------------------

 SCF Done:  E(UB2PLYPD3) =  -156.273436656     A.U. after    1 cycles
 E2(B2PLYPD3) =    -0.2099465730D+00 E(B2PLYPD3) =    -0.15648338322908D+03
 E2(B2PLYPD3) =    -0.2099465730D+00 E(B2PLYPD3) =    -0.15648338322908D+03

 The electronic state is 2-A.
 Alpha  occ. eigenvalues --  -10.62140 -10.61223 -10.61003 -10.60884  -0.92621
 Alpha  occ. eigenvalues --   -0.84434  -0.73336  -0.63672  -0.53127  -0.52486
 Alpha  occ. eigenvalues --   -0.48773  -0.44671  -0.43715  -0.41316  -0.36702
 Alpha  occ. eigenvalues --   -0.23646
 Alpha virt. eigenvalues --    0.08978   0.10128   0.10661   0.10876   0.15509
 Alpha virt. eigenvalues --    0.15546   0.16686   0.18486   0.23580   0.27494
 Alpha virt. eigenvalues --    0.30497   0.31816   0.35027   0.35427   0.36809

  Beta  occ. eigenvalues --  -10.61641 -10.60998 -10.60929 -10.60027  -0.91163
  Beta  occ. eigenvalues --   -0.83081  -0.70894  -0.62920  -0.52474  -0.52000
  Beta  occ. eigenvalues --   -0.47125  -0.44407  -0.43083  -0.41056  -0.32674
  Beta virt. eigenvalues --    0.00084   0.09033   0.10851   0.11112   0.12839
  Beta virt. eigenvalues --    0.15706   0.15770   0.16839   0.18610   0.23771
  Beta virt. eigenvalues --    0.27527   0.30406   0.31916   0.35301   0.37342

 Mulliken charges and spin densities:
               1          2
     1  C   -0.120096   0.694934
     2  C   -0.081051  -0.363908
     3  C   -0.301026   0.742936
     4  C   -0.276699  -0.053051
     5  H    0.118449  -0.027844
     6  H    0.126622   0.014230
     7  H    0.116178  -0.029329
     8  H    0.122903  -0.035446
     9  H    0.099596   0.028205
    10  H    0.099596   0.028305
    11  H    0.095527   0.000968
 Sum of Mulliken charges =   0.00000   1.00000

 Dipole moment (field-independent basis, Debye):
    X=             -0.4610    Y=             -0.0075    Z=              0.0002  Tot=              0.4611
 Quadrupole moment (field-independent basis, Debye-Ang):
   XX=            -24.9734   YY=            -24.4494   ZZ=            -28.5299
   XY=              0.2368   XZ=              0.0000   YZ=             -0.0003

  Exact polarizability:  75.843   1.658  44.184   0.001  -0.000  31.845
 Approx polarizability:  69.118   2.255  50.435   0.001  -0.000  38.824

                      1                      2                      3
                      A                      A                      A
 Frequencies --    149.6447               220.0770               288.2621
 Red. masses --      1.2000                 2.2539                 2.2748
 Frc consts  --      0.0158                 0.0643                 0.1114
 IR Inten    --      0.7453                 1.6242                 0.2153

                      4                      5                      6
                      A                      A                      A
 Frequencies --    509.8108               551.7262               749.8420
 Red. masses --      2.7006                 1.1622                 1.2281
 Frc consts  --      0.4135                 0.2084                 0.4068
 IR Inten    --      0.7036                 5.6968                 0.0177

                      7                      8                      9
                      A                      A                      A
 Frequencies --    802.4064               891.1147              1000.9185
 Red. masses --      1.5038                 1.7910                 1.2006
 Frc consts  --      0.5705                 0.8379                 0.7087
 IR Inten    --     49.0273                 5.8815                 4.1221

                     10                     11                     12
                      A                      A                      A
 Frequencies --   1008.4374              1039.8035              1151.0678
 Red. masses --      1.1515                 1.4211                 2.3899
 Frc consts  --      0.6900                 0.9053                 1.8657
 IR Inten    --     24.2520                 2.7826                 0.7017

                     13                     14                     15
                      A                      A                      A
 Frequencies --   1195.7100              1299.9179              1354.8364
 Red. masses --      1.8692                 2.0358                 1.4144
 Frc consts  --      1.5746                 2.0269                 1.5296
 IR Inten    --      0.4431                 2.1429                 0.9127

                     16                     17                     18
                      A                      A                      A
 Frequencies --   1421.9152              1487.1462              1487.8813
 Red. masses --      1.2572                 1.0456                 1.2520
 Frc consts  --      1.4977                 1.3624                 1.6331
 IR Inten    --      1.2605                 5.9287                15.7617

                     19                     20                     21
                      A                      A                      A
 Frequencies --   1526.4805              1532.2178              3024.9142
 Red. masses --      1.3435                 1.6900                 1.0376
 Frc consts  --      1.8445                 2.3377                 5.5940
 IR Inten    --      5.5724                 3.1101                30.7860

                     22                     23                     24
                      A                      A                      A
 Frequencies --   3066.0706              3119.5014              3147.0574
 Red. masses --      1.0984                 1.0980                 1.0865
 Frc consts  --      6.0838                 6.2956                 6.3398
 IR Inten    --     19.6480                13.5387                 5.8217

                     25                     26                     27
                      A                      A                      A
 Frequencies --   3163.5598              3169.0963              3267.8522
 Red. masses --      1.0823                 1.0599                 1.1166
 Frc consts  --      6.3820                 6.2717                 7.0252
 IR Inten    --     20.9882                16.5256                10.2044

 - Thermochemistry -
 -------------------
 Temperature   298.150 Kelvin.  Pressure   1.00000 Atm.
 Atom     1 has atomic number  6 and mass  12.00000

 Molecular mass:    55.05478 amu.
 Principal axes and moments of inertia in atomic units:
                           1         2         3
     Eigenvalues --    47.02843 447.67080 483.68521
           X            0.99999  -0.00540  -0.00000
           Y            0.00540   0.99999  -0.00002
           Z            0.00000   0.00002   1.00000
 This molecule is an asymmetric top.
 Rotational symmetry number  1.
 Rotational temperatures (Kelvin)      1.84174     0.19348     0.17907
 Rotational constants (GHZ):          38.37553     4.03140     3.73123
 Zero-point vibrational energy     248986.4 (Joules/Mol)
                                   59.50917 (Kcal/Mol)
 Warning -- explicit consideration of   5 degrees of freedom as
           vibrations may cause significant error
 Vibrational temperatures:    215.31   316.64   414.74   733.50   793.81
          (Kelvin)           1078.86  1154.48  1282.12  1440.10  1450.92
                             1496.05  1656.13  1720.36  1870.29  1949.31
                             2045.82  2139.67  2140.73  2196.26  2204.52
                             4352.18  4411.39  4488.27  4527.91  4551.66
                             4559.62  4701.71

 Zero-point correction=                           0.094834 (Hartree/Particle)
 Thermal correction to Energy=                    0.100096
 Thermal correction to Enthalpy=                  0.101040
 Thermal correction to Gibbs Free Energy=         0.067061
 Sum of electronic and zero-point Energies=           -156.388549
 Sum of electronic and thermal Energies=              -156.383287
 Sum of electronic and thermal Enthalpies=            -156.382343
 Sum of electronic and thermal Free Energies=         -156.416322

                     E (Thermal)             CV                S
                      KCal/Mol        Cal/Mol-Kelvin    Cal/Mol-Kelvin
 Total                   62.811             17.820             71.515
 Electronic               0.000              0.000              1.377
 Translational            0.889              2.981             37.939
 Rotational               0.889              2.981             23.836
 Vibrational             61.034             11.858              8.363
 Vibration     1          0.618              1.903              2.677
 Vibration     2          0.647              1.811              1.958
 Vibration     3          0.685              1.696              1.484
 Vibration     4          0.865              1.228              0.634
 Vibration     5          0.907              1.136              0.541

 Optimization completed.
    -- Stationary point found.
 Normal termination of Gaussian 16 at Fri May 31 21:31:33 2019.
