 Gaussian 16, Revision B.01,
 Gaussian 16:  ES64L-G16RevB.01 20-Dec-2017

 -----------------------------------------------
 # opt=maxcyc=500 freq=noraman uB2PLYPD3/cc-pvtz
 -----------------------------------------------

 -------------------
 Title Card Required
 -------------------
 Symbolic Z-matrix:
 Charge =  0 Multiplicity = 1

 SCF Done:  E(UB2PLYPD3) =  -156.906049092     A.U. after   10 cycles
 E2(B2PLYPD3) =    -0.2235927270D+00 E(B2PLYPD3) =    -0.15712964181847D+03
 SCF Done:  E(UB2PLYPD3) =  -156.906185196     A.U. after    7 cycles
 E2(B2PLYPD3) =    -0.2235063965D+00 E(B2PLYPD3) =    -0.15712969159242D+03
 Optimization completed.
    -- Stationary point found.
 Normal termination of Gaussian 16 at Fri May 31 20:53:02 2019.

 ----------------------------------------------------------------------
 #N Geom=AllCheck Guess=TCheck SCRF=Check GenChk UB2PLYPD3(FC)/CC-pVTZ
 Freq
 ----------------------------------------------------------------------

 Structure from the checkpoint file:  "/localscratch/339542/Gau-56793.chk"
 -------------------
 Title Card Required
 -------------------
 Charge =  0 Multiplicity = 1

                         Standard orientation:
 ---------------------------------------------------------------------
 Center     Atomic      Atomic             Coordinates (Angstroms)
 Number     Number       Type             X           Y           Z
 ---------------------------------------------------------------------
      1          6           0       -0.534570   -0.395975   -0.000065
      2          6           0        0.534570    0.395975    0.000015
      3          6           0        1.954155   -0.078947    0.000025
      4          6           0       -1.954155    0.078947    0.000004
      5          1           0       -0.383825   -1.471216   -0.000215
      6          1           0        0.383825    1.471216    0.000135
      7          1           0        2.004820   -1.166505   -0.000853
      8          1           0        2.492242    0.287559   -0.875684
      9          1           0        2.491723    0.286092    0.876677
     10          1           0       -2.491951   -0.286598   -0.876292
     11          1           0       -2.492014   -0.287053    0.876070
     12          1           0       -2.004820    1.166505    0.000284
 ---------------------------------------------------------------------

 SCF Done:  E(UB2PLYPD3) =  -156.906185196     A.U. after    1 cycles
 E2(B2PLYPD3) =    -0.2235063975D+00 E(B2PLYPD3) =    -0.15712969159335D+03
 E2(B2PLYPD3) =    -0.2235063975D+00 E(B2PLYPD3) =    -0.15712969159335D+03

 The electronic state is 1-A.
 Alpha  occ. eigenvalues --  -10.60799 -10.60673 -10.60381 -10.60380  -0.91427
 Alpha  occ. eigenvalues --   -0.83495  -0.74125  -0.62926  -0.51223  -0.51048
 Alpha  occ. eigenvalues --   -0.48171  -0.46634  -0.43579  -0.42315  -0.39901
 Alpha  occ. eigenvalues --   -0.28557
 Alpha virt. eigenvalues --    0.08511   0.08961   0.09911   0.11203   0.15426
 Alpha virt. eigenvalues --    0.15636   0.16162   0.17465   0.18474   0.23372
 Alpha virt. eigenvalues --    0.26652   0.28864   0.31601   0.33230   0.33543

  Beta  occ. eigenvalues --  -10.60799 -10.60673 -10.60381 -10.60380  -0.91427
  Beta  occ. eigenvalues --   -0.83495  -0.74125  -0.62926  -0.51223  -0.51048
  Beta  occ. eigenvalues --   -0.48171  -0.46634  -0.43579  -0.42315  -0.39901
  Beta  occ. eigenvalues --   -0.28557
  Beta virt. eigenvalues --    0.08511   0.08961   0.09911   0.11203   0.15426
  Beta virt. eigenvalues --    0.15636   0.16162   0.17465   0.18474   0.23372
  Beta virt. eigenvalues --    0.26652   0.28864   0.31601   0.33230   0.33543

 Mulliken charges and spin densities:
               1          2
     1  C   -0.134422  -0.000000
     2  C   -0.134422  -0.000000
     3  C   -0.271107   0.000000
     4  C   -0.271107   0.000000
     5  H    0.119653  -0.000000
     6  H    0.119653   0.000000
     7  H    0.093706   0.000000
     8  H    0.096081  -0.000000
     9  H    0.096089  -0.000000
    10  H    0.096086  -0.000000
    11  H    0.096083  -0.000000
    12  H    0.093706  -0.000000
 Sum of Mulliken charges =  -0.00000  -0.00000

 Dipole moment (field-independent basis, Debye):
    X=              0.0000    Y=              0.0000    Z=              0.0001  Tot=              0.0001
 Quadrupole moment (field-independent basis, Debye-Ang):
   XX=            -25.8301   YY=            -25.7317   ZZ=            -28.2420
   XY=              0.3887   XZ=              0.0001   YZ=              0.0003

  Exact polarizability:  65.942   4.453  46.335   0.001   0.001  36.383
 Approx polarizability:  64.155   8.008  55.224   0.002   0.001  43.970

                      1                      2                      3
                      A                      A                      A
 Frequencies --    177.3059               230.4114               246.6915
 Red. masses --      1.0632                 1.2604                 2.1572
 Frc consts  --      0.0197                 0.0394                 0.0773
 IR Inten    --      0.9987                 0.0000                 3.4254

                      4                      5                      6
                      A                      A                      A
 Frequencies --    282.4070               503.3906               760.8078
 Red. masses --      2.3395                 2.7480                 1.2990
 Frc consts  --      0.1099                 0.4103                 0.4430
 IR Inten    --      1.0650                 0.0000                 0.0000

                      7                      8                      9
                      A                      A                      A
 Frequencies --    881.2344               994.5617              1006.0861
 Red. masses --      1.7406                 1.2356                 1.0545
 Frc consts  --      0.7964                 0.7201                 0.6289
 IR Inten    --      0.0000                13.0099                34.4736

                     10                     11                     12
                      A                      A                      A
 Frequencies --   1076.4125              1077.9881              1086.8940
 Red. masses --      1.6073                 1.4415                 3.3103
 Frc consts  --      1.0972                 0.9869                 2.3041
 IR Inten    --      0.0000                 1.5342                 2.9518

                     13                     14                     15
                      A                      A                      A
 Frequencies --   1177.2761              1338.6603              1340.7478
 Red. masses --      2.0012                 1.2874                 1.2712
 Frc consts  --      1.6341                 1.3593                 1.3463
 IR Inten    --      0.0000                 4.7659                 0.0000

                     16                     17                     18
                      A                      A                      A
 Frequencies --   1422.6492              1424.1390              1493.5138
 Red. masses --      1.2783                 1.2524                 1.0436
 Frc consts  --      1.5243                 1.4965                 1.3716
 IR Inten    --      3.9621                 0.0000                12.1247

                     19                     20                     21
                      A                      A                      A
 Frequencies --   1493.9545              1502.9831              1510.8764
 Red. masses --      1.0447                 1.0604                 1.0434
 Frc consts  --      1.3738                 1.4114                 1.4033
 IR Inten    --      0.0000                 0.0000                17.7994

                     22                     23                     24
                      A                      A                      A
 Frequencies --   1741.4972              3039.5817              3039.8856
 Red. masses --      5.5723                 1.0361                 1.0359
 Frc consts  --      9.9570                 5.6399                 5.6399
 IR Inten    --      0.0000                64.5044                 0.0000

                     25                     26                     27
                      A                      A                      A
 Frequencies --   3090.2664              3090.7997              3119.1642
 Red. masses --      1.0996                 1.0997                 1.0984
 Frc consts  --      6.1869                 6.1896                 6.2966
 IR Inten    --     43.5343                 0.0000                18.5597

                     28                     29                     30
                      A                      A                      A
 Frequencies --   3120.6964              3140.3007              3148.1134
 Red. masses --      1.0982                 1.0932                 1.0882
 Frc consts  --      6.3016                 6.3519                 6.3540
 IR Inten    --      0.0000                 0.0000                66.8684

 - Thermochemistry -
 -------------------
 Temperature   298.150 Kelvin.  Pressure   1.00000 Atm.
 Atom     1 has atomic number  6 and mass  12.00000

 Molecular mass:    56.06260 amu.
 Principal axes and moments of inertia in atomic units:
                           1         2         3
     Eigenvalues --    51.56922 482.23349 511.69925
           X            0.99998  -0.00567  -0.00001
           Y            0.00567   0.99998  -0.00011
           Z            0.00001   0.00010   1.00000
 This molecule is an asymmetric top.
 Rotational symmetry number  1.
 Rotational temperatures (Kelvin)      1.67957     0.17961     0.16927
 Rotational constants (GHZ):          34.99648     3.74246     3.52696
 Zero-point vibrational energy     284467.8 (Joules/Mol)
                                   67.98943 (Kcal/Mol)
 Warning -- explicit consideration of   5 degrees of freedom as
           vibrations may cause significant error
 Vibrational temperatures:    255.10   331.51   354.93   406.32   724.27
          (Kelvin)           1094.63  1267.90  1430.95  1447.53  1548.72
                             1550.98  1563.80  1693.84  1926.03  1929.04
                             2046.87  2049.02  2148.83  2149.47  2162.46
                             2173.81  2505.63  4373.28  4373.72  4446.20
                             4446.97  4487.78  4489.99  4518.19  4529.43

 Zero-point correction=                           0.108348 (Hartree/Particle)
 Thermal correction to Energy=                    0.113823
 Thermal correction to Enthalpy=                  0.114767
 Thermal correction to Gibbs Free Energy=         0.080955
 Sum of electronic and zero-point Energies=           -157.021344
 Sum of electronic and thermal Energies=              -157.015869
 Sum of electronic and thermal Enthalpies=            -157.014924
 Sum of electronic and thermal Free Energies=         -157.048736

                     E (Thermal)             CV                S
                      KCal/Mol        Cal/Mol-Kelvin    Cal/Mol-Kelvin
 Total                   71.425             18.239             71.163
 Electronic               0.000              0.000              0.000
 Translational            0.889              2.981             37.993
 Rotational               0.889              2.981             24.057
 Vibrational             69.648             12.278              9.112
 Vibration     1          0.628              1.870              2.357
 Vibration     2          0.652              1.795              1.876
 Vibration     3          0.661              1.768              1.754
 Vibration     4          0.681              1.706              1.519
 Vibration     5          0.859              1.242              0.650

 Optimization completed.
    -- Stationary point found.
 Normal termination of Gaussian 16 at Fri May 31 21:08:02 2019.
