 Gaussian 16, Revision B.01,
 Gaussian 16:  ES64L-G16RevB.01 20-Dec-2017

 -----------------------------------------------
 # opt=maxcyc=500 freq=noraman uB2PLYPD3/cc-pvtz
 -----------------------------------------------

 -------------------
 Title Card Required
 -------------------
 Symbolic Z-matrix:
 Charge =  0 Multiplicity = 2

 SCF Done:  E(UB2PLYPD3) =  -115.756034278     A.U. after   21 cycles
 E2(B2PLYPD3) =    -0.1476623458D+00 E(B2PLYPD3) =    -0.11590369662405D+03
 SCF Done:  E(UB2PLYPD3) =  -115.772552238     A.U. after   18 cycles
 E2(B2PLYPD3) =    -0.1480026886D+00 E(B2PLYPD3) =    -0.11592055492666D+03
 SCF Done:  E(UB2PLYPD3) =  -115.786654352     A.U. after   19 cycles
 E2(B2PLYPD3) =    -0.1461203476D+00 E(B2PLYPD3) =    -0.11593277469941D+03
 SCF Done:  E(UB2PLYPD3) =  -115.789407625     A.U. after   16 cycles
 E2(B2PLYPD3) =    -0.1469970158D+00 E(B2PLYPD3) =    -0.11593640464074D+03
 SCF Done:  E(UB2PLYPD3) =  -115.791134770     A.U. after   15 cycles
 E2(B2PLYPD3) =    -0.1466684785D+00 E(B2PLYPD3) =    -0.11593780324805D+03
 SCF Done:  E(UB2PLYPD3) =  -115.791651923     A.U. after   15 cycles
 E2(B2PLYPD3) =    -0.1466074693D+00 E(B2PLYPD3) =    -0.11593825939209D+03
 SCF Done:  E(UB2PLYPD3) =  -115.791672705     A.U. after   10 cycles
 E2(B2PLYPD3) =    -0.1465954373D+00 E(B2PLYPD3) =    -0.11593826814213D+03
 SCF Done:  E(UB2PLYPD3) =  -115.791717569     A.U. after   12 cycles
 E2(B2PLYPD3) =    -0.1465663459D+00 E(B2PLYPD3) =    -0.11593828391463D+03
 SCF Done:  E(UB2PLYPD3) =  -115.791765053     A.U. after   12 cycles
 E2(B2PLYPD3) =    -0.1465275113D+00 E(B2PLYPD3) =    -0.11593829256450D+03
 SCF Done:  E(UB2PLYPD3) =  -115.791766392     A.U. after    9 cycles
 E2(B2PLYPD3) =    -0.1465264221D+00 E(B2PLYPD3) =    -0.11593829281381D+03
 SCF Done:  E(UB2PLYPD3) =  -115.791761347     A.U. after    9 cycles
 E2(B2PLYPD3) =    -0.1465317023D+00 E(B2PLYPD3) =    -0.11593829304952D+03
 Optimization completed.
    -- Stationary point found.
 Normal termination of Gaussian 16 at Fri May 31 22:03:25 2019.

 ----------------------------------------------------------------------
 #N Geom=AllCheck Guess=TCheck SCRF=Check GenChk UB2PLYPD3(FC)/CC-pVTZ
 Freq
 ----------------------------------------------------------------------

 Structure from the checkpoint file:  "/localscratch/339542/Gau-32509.chk"
 -------------------
 Title Card Required
 -------------------
 Charge =  0 Multiplicity = 2

                         Standard orientation:
 ---------------------------------------------------------------------
 Center     Atomic      Atomic             Coordinates (Angstroms)
 Number     Number       Type             X           Y           Z
 ---------------------------------------------------------------------
      1          6           0        1.337253   -0.000027   -0.000049
      2          1           0        2.397019    0.000064   -0.000046
      3          6           0        0.118015    0.000031    0.000025
      4          6           0       -1.253578    0.000002    0.000023
      5          1           0       -1.803650    0.927669   -0.000030
      6          1           0       -1.803509   -0.927769    0.000079
 ---------------------------------------------------------------------

 SCF Done:  E(UB2PLYPD3) =  -115.791761347     A.U. after    1 cycles
 E2(B2PLYPD3) =    -0.1465317045D+00 E(B2PLYPD3) =    -0.11593829305176D+03
 E2(B2PLYPD3) =    -0.1465317045D+00 E(B2PLYPD3) =    -0.11593829305176D+03

 The electronic state is 2-A.
 Alpha  occ. eigenvalues --  -10.64636 -10.62943 -10.62660  -0.91026  -0.81871
 Alpha  occ. eigenvalues --   -0.62405  -0.55208  -0.52461  -0.40744  -0.33286
 Alpha  occ. eigenvalues --   -0.27254
 Alpha virt. eigenvalues --    0.08789   0.09509   0.10809   0.13931   0.16051
 Alpha virt. eigenvalues --    0.22441   0.26931   0.33416   0.34234   0.35422
 Alpha virt. eigenvalues --    0.38145   0.38424   0.45271   0.48328   0.52394

  Beta  occ. eigenvalues --  -10.63472 -10.63225 -10.61773  -0.89546  -0.77904
  Beta  occ. eigenvalues --   -0.61426  -0.54555  -0.51836  -0.35661  -0.32776
  Beta virt. eigenvalues --   -0.02731   0.08839   0.10013   0.11150   0.16216
  Beta virt. eigenvalues --    0.16506   0.22562   0.27325   0.34569   0.35922
  Beta virt. eigenvalues --    0.37196   0.40313   0.42129   0.46848   0.48419

 Mulliken charges and spin densities:
               1          2
     1  C   -0.163101   0.607967
     2  H    0.169311  -0.019880
     3  C    0.055855  -0.371968
     4  C   -0.341818   0.861954
     5  H    0.139885  -0.039037
     6  H    0.139867  -0.039037
 Sum of Mulliken charges =   0.00000   1.00000

 Dipole moment (field-independent basis, Debye):
    X=             -0.1433    Y=              0.0001    Z=              0.0000  Tot=              0.1433
 Quadrupole moment (field-independent basis, Debye-Ang):
   XX=            -12.6648   YY=            -18.4903   ZZ=            -20.2398
   XY=              0.0001   XZ=             -0.0001   YZ=             -0.0001

  Exact polarizability:  56.345  -0.000  22.463  -0.001  -0.000  19.593
 Approx polarizability:  64.975  -0.001  25.498  -0.002  -0.000  22.833

                      1                      2                      3
                      A                      A                      A
 Frequencies --    348.8041               405.8869               509.6009
 Red. masses --      2.8799                 4.1963                 1.2284
 Frc consts  --      0.2064                 0.4073                 0.1880
 IR Inten    --      5.7607                 7.7766                50.8735

                      4                      5                      6
                      A                      A                      A
 Frequencies --    638.1628               676.0714              1042.4492
 Red. masses --      1.2267                 1.3678                 1.4350
 Frc consts  --      0.2943                 0.3684                 0.9188
 IR Inten    --     48.6806                41.2574                 1.1975

                      7                      8                      9
                      A                      A                      A
 Frequencies --   1074.8603              1473.8603              2041.0757
 Red. masses --      3.9631                 1.1884                 6.6769
 Frc consts  --      2.6977                 1.5209                16.3887
 IR Inten    --      3.0678                 0.5486                 2.8704

                     10                     11                     12
                      A                      A                      A
 Frequencies --   3175.1261              3271.8378              3485.3375
 Red. masses --      1.0502                 1.1182                 1.1400
 Frc consts  --      6.2381                 7.0525                 8.1593
 IR Inten    --      2.2459                 0.3979                59.2025

 - Thermochemistry -
 -------------------
 Temperature   298.150 Kelvin.  Pressure   1.00000 Atm.
 Atom     1 has atomic number  6 and mass  12.00000

 Molecular mass:    39.02348 amu.
 Principal axes and moments of inertia in atomic units:
                           1         2         3
     Eigenvalues --     6.19506 188.53088 194.72594
           X            1.00000   0.00000   0.00002
           Y           -0.00000   1.00000   0.00006
           Z           -0.00002  -0.00006   1.00000
 This molecule is an asymmetric top.
 Rotational symmetry number  1.
 Rotational temperatures (Kelvin)     13.98112     0.45942     0.44480
 Rotational constants (GHZ):         291.31929     9.57266     9.26811
 Zero-point vibrational energy     108519.7 (Joules/Mol)
                                   25.93683 (Kcal/Mol)
 Warning -- explicit consideration of   3 degrees of freedom as
           vibrations may cause significant error
 Vibrational temperatures:    501.85   583.98   733.20   918.17   972.72
          (Kelvin)           1499.85  1546.48  2120.56  2936.65  4568.30
                             4707.44  5014.62

 Zero-point correction=                           0.041333 (Hartree/Particle)
 Thermal correction to Energy=                    0.045376
 Thermal correction to Enthalpy=                  0.046321
 Thermal correction to Gibbs Free Energy=         0.016871
 Sum of electronic and zero-point Energies=           -115.896960
 Sum of electronic and thermal Energies=              -115.892917
 Sum of electronic and thermal Enthalpies=            -115.891972
 Sum of electronic and thermal Free Energies=         -115.921422

                     E (Thermal)             CV                S
                      KCal/Mol        Cal/Mol-Kelvin    Cal/Mol-Kelvin
 Total                   28.474             12.781             61.983
 Electronic               0.000              0.000              1.377
 Translational            0.889              2.981             36.913
 Rotational               0.889              2.981             20.059
 Vibrational             26.697              6.819              3.634
 Vibration     1          0.726              1.578              1.172
 Vibration     2          0.771              1.457              0.941
 Vibration     3          0.865              1.229              0.635

 Optimization completed.
    -- Stationary point found.
 Normal termination of Gaussian 16 at Fri May 31 22:05:24 2019.
