 Gaussian 16, Revision B.01,
 Gaussian 16:  ES64L-G16RevB.01 20-Dec-2017

 -----------------------------------------------
 # opt=maxcyc=500 freq=noraman uB2PLYPD3/cc-pvtz
 -----------------------------------------------

 -------------------
 Title Card Required
 -------------------
 Symbolic Z-matrix:
 Charge =  0 Multiplicity = 1

 SCF Done:  E(UB2PLYPD3) =  -116.322309941     A.U. after   20 cycles
 E2(B2PLYPD3) =    -0.1587167862D+00 E(B2PLYPD3) =    -0.11648102672711D+03
 SCF Done:  E(UB2PLYPD3) =  -116.322574738     A.U. after   17 cycles
 E2(B2PLYPD3) =    -0.1588802301D+00 E(B2PLYPD3) =    -0.11648145496787D+03
 SCF Done:  E(UB2PLYPD3) =  -116.329416571     A.U. after   27 cycles
 E2(B2PLYPD3) =    -0.1595545808D+00 E(B2PLYPD3) =    -0.11648897115161D+03
 SCF Done:  E(UB2PLYPD3) =  -116.333119646     A.U. after   17 cycles
 E2(B2PLYPD3) =    -0.1612434194D+00 E(B2PLYPD3) =    -0.11649436306533D+03
 SCF Done:  E(UB2PLYPD3) =  -116.344769719     A.U. after   16 cycles
 E2(B2PLYPD3) =    -0.1619675326D+00 E(B2PLYPD3) =    -0.11650673725116D+03
 SCF Done:  E(UB2PLYPD3) =  -116.349672497     A.U. after   12 cycles
 E2(B2PLYPD3) =    -0.1620107496D+00 E(B2PLYPD3) =    -0.11651168324611D+03
 SCF Done:  E(UB2PLYPD3) =  -116.334170359     A.U. after   16 cycles
 E2(B2PLYPD3) =    -0.1618086576D+00 E(B2PLYPD3) =    -0.11649597901647D+03
 SCF Done:  E(UB2PLYPD3) =  -116.373051916     A.U. after   13 cycles
 E2(B2PLYPD3) =    -0.1618933560D+00 E(B2PLYPD3) =    -0.11653494527209D+03
 SCF Done:  E(UB2PLYPD3) =  -116.391896347     A.U. after   12 cycles
 E2(B2PLYPD3) =    -0.1614744172D+00 E(B2PLYPD3) =    -0.11655337076461D+03
 SCF Done:  E(UB2PLYPD3) =  -116.408078731     A.U. after   12 cycles
 E2(B2PLYPD3) =    -0.1600822152D+00 E(B2PLYPD3) =    -0.11656816094605D+03
 E2(B2PLYPD3) =    -0.1584858207D+00 E(B2PLYPD3) =    -0.11658037673987D+03
 E2(B2PLYPD3) =    -0.1578361701D+00 E(B2PLYPD3) =    -0.11658758706372D+03
 E2(B2PLYPD3) =    -0.1577546787D+00 E(B2PLYPD3) =    -0.11658682862246D+03
 E2(B2PLYPD3) =    -0.1600481139D+00 E(B2PLYPD3) =    -0.11657654623747D+03
 SCF Done:  E(UB2PLYPD3) =  -116.417671887     A.U. after   12 cycles
 E2(B2PLYPD3) =    -0.1600547293D+00 E(B2PLYPD3) =    -0.11657772661659D+03
 SCF Done:  E(UB2PLYPD3) =  -116.430447106     A.U. after    9 cycles
 E2(B2PLYPD3) =    -0.1581129783D+00 E(B2PLYPD3) =    -0.11658856008446D+03
 SCF Done:  E(UB2PLYPD3) =  -116.428821599     A.U. after   11 cycles
 E2(B2PLYPD3) =    -0.1584432015D+00 E(B2PLYPD3) =    -0.11658726480011D+03
 SCF Done:  E(UB2PLYPD3) =  -116.432901659     A.U. after   10 cycles
 E2(B2PLYPD3) =    -0.1577396454D+00 E(B2PLYPD3) =    -0.11659064130399D+03
 SCF Done:  E(UB2PLYPD3) =  -116.432595210     A.U. after   11 cycles
 E2(B2PLYPD3) =    -0.1578554595D+00 E(B2PLYPD3) =    -0.11659045066980D+03
 SCF Done:  E(UB2PLYPD3) =  -116.433067048     A.U. after    9 cycles
 E2(B2PLYPD3) =    -0.1577522907D+00 E(B2PLYPD3) =    -0.11659081933900D+03
 SCF Done:  E(UB2PLYPD3) =  -116.433086212     A.U. after    8 cycles
 E2(B2PLYPD3) =    -0.1577572150D+00 E(B2PLYPD3) =    -0.11659084342660D+03
 SCF Done:  E(UB2PLYPD3) =  -116.433094004     A.U. after    7 cycles
 E2(B2PLYPD3) =    -0.1577507020D+00 E(B2PLYPD3) =    -0.11659084470590D+03
 SCF Done:  E(UB2PLYPD3) =  -116.433093527     A.U. after    6 cycles
 E2(B2PLYPD3) =    -0.1577513566D+00 E(B2PLYPD3) =    -0.11659084488345D+03
 Optimization completed.
    -- Stationary point found.
 Normal termination of Gaussian 16 at Fri May 31 21:57:51 2019.

 ----------------------------------------------------------------------
 #N Geom=AllCheck Guess=TCheck SCRF=Check GenChk UB2PLYPD3(FC)/CC-pVTZ
 Freq
 ----------------------------------------------------------------------

 Structure from the checkpoint file:  "/localscratch/339542/Gau-23650.chk"
 -------------------
 Title Card Required
 -------------------
 Charge =  0 Multiplicity = 1

                         Standard orientation:
 ---------------------------------------------------------------------
 Center     Atomic      Atomic             Coordinates (Angstroms)
 Number     Number       Type             X           Y           Z
 ---------------------------------------------------------------------
      1          6           0       -1.303028    0.000055   -0.000037
      2          1           0       -1.861437   -0.437123    0.816044
      3          1           0       -1.861488    0.437128   -0.816155
      4          6           0        0.000015   -0.000128    0.000093
      5          6           0        1.303044    0.000005   -0.000015
      6          1           0        1.861567   -0.815999   -0.437138
      7          1           0        1.861175    0.816398    0.437007
 ---------------------------------------------------------------------

 SCF Done:  E(UB2PLYPD3) =  -116.433093527     A.U. after    1 cycles
 E2(B2PLYPD3) =    -0.1577513555D+00 E(B2PLYPD3) =    -0.11659084488232D+03
 E2(B2PLYPD3) =    -0.1577513555D+00 E(B2PLYPD3) =    -0.11659084488232D+03

 The electronic state is 1-A.
 Alpha  occ. eigenvalues --  -10.64292 -10.62080 -10.62072  -0.91210  -0.81355
 Alpha  occ. eigenvalues --   -0.60548  -0.52937  -0.51568  -0.51565  -0.31758
 Alpha  occ. eigenvalues --   -0.31757
 Alpha virt. eigenvalues --    0.06756   0.06758   0.09500   0.11928   0.16413
 Alpha virt. eigenvalues --    0.16414   0.23685   0.24462   0.34742   0.34743
 Alpha virt. eigenvalues --    0.35673   0.43555   0.43880   0.47791   0.47792

  Beta  occ. eigenvalues --  -10.64292 -10.62080 -10.62072  -0.91210  -0.81355
  Beta  occ. eigenvalues --   -0.60548  -0.52937  -0.51568  -0.51565  -0.31758
  Beta  occ. eigenvalues --   -0.31757
  Beta virt. eigenvalues --    0.06756   0.06758   0.09500   0.11928   0.16413
  Beta virt. eigenvalues --    0.16414   0.23685   0.24462   0.34742   0.34743
  Beta virt. eigenvalues --    0.35673   0.43555   0.43880   0.47791   0.47792

 Mulliken charges and spin densities:
               1          2
     1  C   -0.344642  -0.000000
     2  H    0.140040   0.000000
     3  H    0.140053   0.000000
     4  C    0.129107   0.000000
     5  C   -0.344671   0.000000
     6  H    0.140075  -0.000000
     7  H    0.140038  -0.000000
 Sum of Mulliken charges =  -0.00000  -0.00000

 Dipole moment (field-independent basis, Debye):
    X=             -0.0000    Y=              0.0002    Z=             -0.0003  Tot=              0.0004
 Quadrupole moment (field-independent basis, Debye-Ang):
   XX=            -15.5910   YY=            -19.5428   ZZ=            -19.5435
   XY=              0.0000   XZ=             -0.0002   YZ=              0.0000

  Exact polarizability:  60.156   0.000  23.568  -0.001  -0.000  23.568
 Approx polarizability:  69.250  -0.000  27.352  -0.001  -0.000  27.352

                      1                      2                      3
                      A                      A                      A
 Frequencies --    368.0752               368.0880               872.2374
 Red. masses --      2.5530                 2.5532                 1.3024
 Frc consts  --      0.2038                 0.2038                 0.5838
 IR Inten    --      6.0387                 6.0351                55.1007

                      4                      5                      6
                      A                      A                      A
 Frequencies --    872.3036               890.4422              1023.3362
 Red. masses --      1.3024                 1.0078                 1.5155
 Frc consts  --      0.5839                 0.4708                 0.9351
 IR Inten    --     55.0987                 0.0011                 0.9000

                      7                      8                      9
                      A                      A                      A
 Frequencies --   1023.3828              1105.1371              1438.2199
 Red. masses --      1.5155                 2.5179                 1.0806
 Frc consts  --      0.9351                 1.8119                 1.3169
 IR Inten    --      0.9017                 0.0000                 3.3402

                     10                     11                     12
                      A                      A                      A
 Frequencies --   1491.4025              2043.4968              3151.2336
 Red. masses --      1.3793                 9.4444                 1.0582
 Frc consts  --      1.8076                23.2367                 6.1914
 IR Inten    --      0.0000                68.5387                 1.3374

                     13                     14                     15
                      A                      A                      A
 Frequencies --   3153.6997              3231.1671              3231.2295
 Red. masses --      1.0575                 1.1155                 1.1155
 Frc consts  --      6.1966                 6.8619                 6.8622
 IR Inten    --      0.0000                 0.8213                 0.8182

 - Thermochemistry -
 -------------------
 Temperature   298.150 Kelvin.  Pressure   1.00000 Atm.
 Atom     1 has atomic number  6 and mass  12.00000

 Molecular mass:    40.03130 amu.
 Principal axes and moments of inertia in atomic units:
                           1         2         3
     Eigenvalues --    12.33962 201.56909 201.57058
           X            1.00000   0.00001  -0.00000
           Y           -0.00001   1.00000   0.00019
           Z            0.00000  -0.00019   1.00000
 This molecule is an asymmetric top.
 Rotational symmetry number  1.
 Rotational temperatures (Kelvin)      7.01917     0.42970     0.42970
 Rotational constants (GHZ):         146.25579     8.95346     8.95340
 Zero-point vibrational energy     145127.7 (Joules/Mol)
                                   34.68635 (Kcal/Mol)
 Warning -- explicit consideration of   2 degrees of freedom as
           vibrations may cause significant error
 Vibrational temperatures:    529.58   529.60  1254.96  1255.05  1281.15
          (Kelvin)           1472.35  1472.42  1590.05  2069.28  2145.80
                             2940.14  4533.92  4537.47  4648.93  4649.02

 Zero-point correction=                           0.055276 (Hartree/Particle)
 Thermal correction to Energy=                    0.059072
 Thermal correction to Enthalpy=                  0.060016
 Thermal correction to Gibbs Free Energy=         0.031163
 Sum of electronic and zero-point Energies=           -116.535569
 Sum of electronic and thermal Energies=              -116.531773
 Sum of electronic and thermal Enthalpies=            -116.530829
 Sum of electronic and thermal Free Energies=         -116.559682

                     E (Thermal)             CV                S
                      KCal/Mol        Cal/Mol-Kelvin    Cal/Mol-Kelvin
 Total                   37.068             11.789             60.725
 Electronic               0.000              0.000              0.000
 Translational            0.889              2.981             36.989
 Rotational               0.889              2.981             20.844
 Vibrational             35.291              5.828              2.892
 Vibration     1          0.741              1.538              1.088
 Vibration     2          0.741              1.538              1.088

 Optimization completed.
    -- Stationary point found.
 Normal termination of Gaussian 16 at Fri May 31 22:00:29 2019.
