 Gaussian 16, Revision B.01,
 Gaussian 16:  ES64L-G16RevB.01 20-Dec-2017

 -----------------------------------------------
 # opt=maxcyc=500 freq=noraman uB2PLYPD3/cc-pvtz
 -----------------------------------------------

 -------------------
 Title Card Required
 -------------------
 Symbolic Z-matrix:
 Charge =  0 Multiplicity = 2

 SCF Done:  E(UB2PLYPD3) =  -77.7528165159     A.U. after   18 cycles
 E2(B2PLYPD3) =    -0.9817230751D-01 E(B2PLYPD3) =    -0.77850988823431D+02
 SCF Done:  E(UB2PLYPD3) =  -77.7571917473     A.U. after   13 cycles
 E2(B2PLYPD3) =    -0.9806636572D-01 E(B2PLYPD3) =    -0.77855258113003D+02
 SCF Done:  E(UB2PLYPD3) =  -77.7576445483     A.U. after   13 cycles
 E2(B2PLYPD3) =    -0.9803547977D-01 E(B2PLYPD3) =    -0.77855680028026D+02
 SCF Done:  E(UB2PLYPD3) =  -77.7576455856     A.U. after   12 cycles
 E2(B2PLYPD3) =    -0.9805480012D-01 E(B2PLYPD3) =    -0.77855700385717D+02
 SCF Done:  E(UB2PLYPD3) =  -77.7576499821     A.U. after    8 cycles
 E2(B2PLYPD3) =    -0.9805295021D-01 E(B2PLYPD3) =    -0.77855702932318D+02
 Optimization completed.
    -- Stationary point found.
 Normal termination of Gaussian 16 at Fri May 31 22:06:40 2019.

 ----------------------------------------------------------------------
 #N Geom=AllCheck Guess=TCheck SCRF=Check GenChk UB2PLYPD3(FC)/CC-pVTZ
 Freq
 ----------------------------------------------------------------------

 Structure from the checkpoint file:  "/localscratch/339542/Gau-94298.chk"
 -------------------
 Title Card Required
 -------------------
 Charge =  0 Multiplicity = 2

                         Standard orientation:
 ---------------------------------------------------------------------
 Center     Atomic      Atomic             Coordinates (Angstroms)
 Number     Number       Type             X           Y           Z
 ---------------------------------------------------------------------
      1          6           0        0.705234   -0.143736   -0.000005
      2          6           0       -0.586448    0.029514   -0.000000
      3          1           0       -1.027200    1.025235    0.000031
      4          1           0        1.594366    0.462780    0.000003
      5          1           0       -1.279877   -0.802682    0.000001
 ---------------------------------------------------------------------

 SCF Done:  E(UB2PLYPD3) =  -77.7576499821     A.U. after    1 cycles
 E2(B2PLYPD3) =    -0.9805295614D-01 E(B2PLYPD3) =    -0.77855702938248D+02
 E2(B2PLYPD3) =    -0.9805295614D-01 E(B2PLYPD3) =    -0.77855702938248D+02

 The electronic state is 2-A.
 Alpha  occ. eigenvalues --  -10.64362 -10.61974  -0.88838  -0.66886  -0.53992
 Alpha  occ. eigenvalues --   -0.50682  -0.33651  -0.30571
 Alpha virt. eigenvalues --    0.06197   0.10343   0.11713   0.15260   0.26867
 Alpha virt. eigenvalues --    0.31903   0.34203   0.35014   0.39322   0.44760
 Alpha virt. eigenvalues --    0.45635   0.51712   0.53512   0.56108   0.58637

  Beta  occ. eigenvalues --  -10.62393 -10.62245  -0.86405  -0.63731  -0.52085
  Beta  occ. eigenvalues --   -0.48495  -0.32732
  Beta virt. eigenvalues --   -0.00288   0.07476   0.10547   0.12243   0.15525
  Beta virt. eigenvalues --    0.27440   0.34039   0.35213   0.35814   0.41852
  Beta virt. eigenvalues --    0.46305   0.46978   0.53398   0.53737   0.56588

 Mulliken charges and spin densities:
               1          2
     1  C   -0.177118   1.090213
     2  C   -0.254339  -0.229549
     3  H    0.130023   0.079397
     4  H    0.161218   0.017033
     5  H    0.140216   0.042906
 Sum of Mulliken charges =  -0.00000   1.00000

 Dipole moment (field-independent basis, Debye):
    X=             -0.1795    Y=              0.6232    Z=              0.0000  Tot=              0.6485
 Quadrupole moment (field-independent basis, Debye-Ang):
   XX=            -11.0199   YY=            -12.6464   ZZ=            -14.8319
   XY=              0.9727   XZ=             -0.0000   YZ=              0.0000

  Exact polarizability:  32.871  -0.696  19.844  -0.000   0.000  15.035
 Approx polarizability:  37.004  -1.434  20.843  -0.000   0.000  17.322

                      1                      2                      3
                      A                      A                      A
 Frequencies --    719.9968               830.9840               937.1396
 Red. masses --      1.0550                 1.2513                 1.2310
 Frc consts  --      0.3222                 0.5091                 0.6370
 IR Inten    --     21.3994                16.6564                72.8481

                      4                      5                      6
                      A                      A                      A
 Frequencies --   1064.2456              1407.0849              1671.8292
 Red. masses --      1.5009                 1.1040                 5.4468
 Frc consts  --      1.0016                 1.2878                 8.9697
 IR Inten    --      8.6243                 8.1943                 2.1855

                      7                      8                      9
                      A                      A                      A
 Frequencies --   3078.1425              3179.1465              3266.9289
 Red. masses --      1.0617                 1.1036                 1.1058
 Frc consts  --      5.9267                 6.5719                 6.9538
 IR Inten    --      3.6155                 2.7861                 0.6843

 - Thermochemistry -
 -------------------
 Temperature   298.150 Kelvin.  Pressure   1.00000 Atm.
 Atom     1 has atomic number  6 and mass  12.00000

 Molecular mass:    27.02348 amu.
 Principal axes and moments of inertia in atomic units:
                           1         2         3
     Eigenvalues --     7.60604  54.95466  62.56069
           X            0.99865   0.05201   0.00000
           Y           -0.05201   0.99865  -0.00002
           Z           -0.00000   0.00002   1.00000
 This molecule is an asymmetric top.
 Rotational symmetry number  1.
 Rotational temperatures (Kelvin)     11.38753     1.57610     1.38448
 Rotational constants (GHZ):         237.27752    32.84055    28.84785
 Zero-point vibrational energy      96631.3 (Joules/Mol)
                                   23.09544 (Kcal/Mol)
 Vibrational temperatures:   1035.91  1195.60  1348.33  1531.21  2024.48
          (Kelvin)           2405.39  4428.76  4574.08  4700.38

 Zero-point correction=                           0.036805 (Hartree/Particle)
 Thermal correction to Energy=                    0.039897
 Thermal correction to Enthalpy=                  0.040842
 Thermal correction to Gibbs Free Energy=         0.014335
 Sum of electronic and zero-point Energies=            -77.818898
 Sum of electronic and thermal Energies=               -77.815805
 Sum of electronic and thermal Enthalpies=             -77.814861
 Sum of electronic and thermal Free Energies=          -77.841367

                     E (Thermal)             CV                S
                      KCal/Mol        Cal/Mol-Kelvin    Cal/Mol-Kelvin
 Total                   25.036              8.262             55.787
 Electronic               0.000              0.000              1.377
 Translational            0.889              2.981             35.818
 Rotational               0.889              2.981             17.909
 Vibrational             23.259              2.300              0.682

 Optimization completed.
    -- Stationary point found.
 Normal termination of Gaussian 16 at Fri May 31 22:07:34 2019.
