 Gaussian 16, Revision B.01,
 Gaussian 16:  ES64L-G16RevB.01 20-Dec-2017

 -----------------------------------------------
 # opt=maxcyc=500 freq=noraman uB2PLYPD3/cc-pvtz
 -----------------------------------------------

 -------------------
 Title Card Required
 -------------------
 Symbolic Z-matrix:
 Charge =  0 Multiplicity = 1

 SCF Done:  E(UB2PLYPD3) =  -78.4303922096     A.U. after    9 cycles
 E2(B2PLYPD3) =    -0.1101232446D+00 E(B2PLYPD3) =    -0.78540515454226D+02
 SCF Done:  E(UB2PLYPD3) =  -78.4304678203     A.U. after    7 cycles
 E2(B2PLYPD3) =    -0.1100821782D+00 E(B2PLYPD3) =    -0.78540549998490D+02
 Optimization completed.
    -- Stationary point found.
 Normal termination of Gaussian 16 at Fri May 31 22:07:53 2019.

 ----------------------------------------------------------------------
 #N Geom=AllCheck Guess=TCheck SCRF=Check GenChk UB2PLYPD3(FC)/CC-pVTZ
 Freq
 ----------------------------------------------------------------------

 Structure from the checkpoint file:  "/localscratch/339542/Gau-54113.chk"
 -------------------
 Title Card Required
 -------------------
 Charge =  0 Multiplicity = 1

                         Standard orientation:
 ---------------------------------------------------------------------
 Center     Atomic      Atomic             Coordinates (Angstroms)
 Number     Number       Type             X           Y           Z
 ---------------------------------------------------------------------
      1          6           0        0.663565   -0.000001    0.000011
      2          6           0       -0.663573   -0.000000    0.000010
      3          1           0       -1.229894    0.920382   -0.000032
      4          1           0        1.229924   -0.920366   -0.000031
      5          1           0        1.229912    0.920374   -0.000031
      6          1           0       -1.229894   -0.920385   -0.000032
 ---------------------------------------------------------------------

 SCF Done:  E(UB2PLYPD3) =  -78.4304678203     A.U. after    1 cycles
 E2(B2PLYPD3) =    -0.1100821787D+00 E(B2PLYPD3) =    -0.78540549998947D+02
 E2(B2PLYPD3) =    -0.1100821787D+00 E(B2PLYPD3) =    -0.78540549998947D+02

 The electronic state is 1-A.
 Alpha  occ. eigenvalues --  -10.61475 -10.61345  -0.87711  -0.67068  -0.54473
 Alpha  occ. eigenvalues --   -0.49313  -0.42020  -0.32088
 Alpha virt. eigenvalues --    0.06286   0.09848   0.12712   0.12855   0.18705
 Alpha virt. eigenvalues --    0.29574   0.29638   0.35251   0.35562   0.39377
 Alpha virt. eigenvalues --    0.45835   0.48849   0.49974   0.53896   0.54831

  Beta  occ. eigenvalues --  -10.61475 -10.61345  -0.87711  -0.67068  -0.54473
  Beta  occ. eigenvalues --   -0.49313  -0.42020  -0.32088
  Beta virt. eigenvalues --    0.06286   0.09848   0.12712   0.12855   0.18705
  Beta virt. eigenvalues --    0.29574   0.29638   0.35251   0.35562   0.39377
  Beta virt. eigenvalues --    0.45835   0.48849   0.49974   0.53896   0.54831

 Mulliken charges and spin densities:
               1          2
     1  C   -0.256752   0.000000
     2  C   -0.256761  -0.000000
     3  H    0.128382   0.000000
     4  H    0.128377  -0.000000
     5  H    0.128375  -0.000000
     6  H    0.128380   0.000000
 Sum of Mulliken charges =  -0.00000   0.00000

 Dipole moment (field-independent basis, Debye):
    X=              0.0000    Y=              0.0000    Z=             -0.0001  Tot=              0.0001
 Quadrupole moment (field-independent basis, Debye-Ang):
   XX=            -12.2403   YY=            -12.3719   ZZ=            -15.6604
   XY=             -0.0000   XZ=              0.0000   YZ=              0.0000

  Exact polarizability:  33.624   0.000  22.604   0.000   0.000  15.423
 Approx polarizability:  38.577   0.000  23.900   0.000   0.000  18.422

                      1                      2                      3
                      A                      A                      A
 Frequencies --    835.6235               978.0368               984.4350
 Red. masses --      1.0423                 1.5159                 1.1607
 Frc consts  --      0.4288                 0.8543                 0.6628
 IR Inten    --      0.1459                 0.0008                93.3464

                      4                      5                      6
                      A                      A                      A
 Frequencies --   1072.8897              1252.5524              1386.1568
 Red. masses --      1.0078                 1.5224                 1.2513
 Frc consts  --      0.6835                 1.4072                 1.4166
 IR Inten    --      0.0000                 0.0000                 0.0000

                      7                      8                      9
                      A                      A                      A
 Frequencies --   1488.0177              1690.6610              3154.2024
 Red. masses --      1.1124                 2.9736                 1.0474
 Frc consts  --      1.4511                 5.0078                 6.1395
 IR Inten    --      9.0419                 0.0000                15.0943

                     10                     11                     12
                      A                      A                      A
 Frequencies --   3169.5091              3230.1999              3257.9054
 Red. masses --      1.0725                 1.1148                 1.1181
 Frc consts  --      6.3481                 6.8533                 6.9921
 IR Inten    --      0.0000                 0.0000                21.1866

 - Thermochemistry -
 -------------------
 Temperature   298.150 Kelvin.  Pressure   1.00000 Atm.
 Atom     1 has atomic number  6 and mass  12.00000

 Molecular mass:    28.03130 amu.
 Principal axes and moments of inertia in atomic units:
                           1         2         3
     Eigenvalues --    12.19479  59.51463  71.70941
           X            1.00000   0.00000  -0.00000
           Y           -0.00000   1.00000  -0.00000
           Z            0.00000   0.00000   1.00000
 This molecule is an asymmetric top.
 Rotational symmetry number  1.
 Rotational temperatures (Kelvin)      7.10254     1.45534     1.20785
 Rotational constants (GHZ):         147.99286    30.32433    25.16742
 Zero-point vibrational energy     134581.0 (Joules/Mol)
                                   32.16564 (Kcal/Mol)
 Vibrational temperatures:   1202.28  1407.18  1416.38  1543.65  1802.14
          (Kelvin)           1994.37  2140.93  2432.48  4538.19  4560.22
                             4647.54  4687.40

 Zero-point correction=                           0.051259 (Hartree/Particle)
 Thermal correction to Energy=                    0.054296
 Thermal correction to Enthalpy=                  0.055240
 Thermal correction to Gibbs Free Energy=         0.029088
 Sum of electronic and zero-point Energies=            -78.489291
 Sum of electronic and thermal Energies=               -78.486254
 Sum of electronic and thermal Enthalpies=             -78.485310
 Sum of electronic and thermal Free Energies=          -78.511462

                     E (Thermal)             CV                S
                      KCal/Mol        Cal/Mol-Kelvin    Cal/Mol-Kelvin
 Total                   34.071              8.056             55.042
 Electronic               0.000              0.000              0.000
 Translational            0.889              2.981             35.927
 Rotational               0.889              2.981             18.593
 Vibrational             32.294              2.095              0.522

 Optimization completed.
    -- Stationary point found.
 Normal termination of Gaussian 16 at Fri May 31 22:09:09 2019.
