 Gaussian 16, Revision B.01,
 Gaussian 16:  ES64L-G16RevB.01 20-Dec-2017

 -----------------------------------------------
 # opt=maxcyc=500 freq=noraman uB2PLYPD3/cc-pvtz
 -----------------------------------------------

 -------------------
 Title Card Required
 -------------------
 Symbolic Z-matrix:
 Charge =  0 Multiplicity = 1

 SCF Done:  E(UB2PLYPD3) =  -154.778014579     A.U. after   11 cycles
 E2(B2PLYPD3) =    -0.1949416150D+00 E(B2PLYPD3) =    -0.15497295619403D+03
 SCF Done:  E(UB2PLYPD3) =  -154.778690874     A.U. after    8 cycles
 E2(B2PLYPD3) =    -0.1945556390D+00 E(B2PLYPD3) =    -0.15497324651328D+03
 SCF Done:  E(UB2PLYPD3) =  -154.778706518     A.U. after    6 cycles
 E2(B2PLYPD3) =    -0.1945425317D+00 E(B2PLYPD3) =    -0.15497324904925D+03
 Optimization completed.
    -- Stationary point found.
 Normal termination of Gaussian 16 at Tue Jul 30 15:23:42 2019.

 ----------------------------------------------------------------------
 #N Geom=AllCheck Guess=TCheck SCRF=Check GenChk UB2PLYPD3(FC)/CC-pVTZ
 Freq
 ----------------------------------------------------------------------

 Structure from the checkpoint file:  "/localscratch/386879/Gau-29647.chk"
 -------------------
 Title Card Required
 -------------------
 Charge =  0 Multiplicity = 1

                         Standard orientation:
 ---------------------------------------------------------------------
 Center     Atomic      Atomic             Coordinates (Angstroms)
 Number     Number       Type             X           Y           Z
 ---------------------------------------------------------------------
      1          6           0        1.217718   -0.223069    0.000024
      2          6           0       -0.082498    0.549010   -0.000017
      3          8           0       -1.148479   -0.396069   -0.000045
      4          1           0        2.067233    0.458465   -0.000277
      5          1           0        1.280726   -0.857228   -0.882106
      6          1           0        1.280995   -0.856797    0.882441
      7          1           0       -0.136307    1.192647    0.883366
      8          1           0       -0.136242    1.192618   -0.883427
      9          1           0       -1.979890    0.083200    0.000327
 ---------------------------------------------------------------------

 SCF Done:  E(UB2PLYPD3) =  -154.778706518     A.U. after    1 cycles
 E2(B2PLYPD3) =    -0.1945425419D+00 E(B2PLYPD3) =    -0.15497324905954D+03
 E2(B2PLYPD3) =    -0.1945425419D+00 E(B2PLYPD3) =    -0.15497324905954D+03

 The electronic state is 1-A.
 Alpha  occ. eigenvalues --  -19.71802 -10.65862 -10.59867  -1.15682  -0.85965
 Alpha  occ. eigenvalues --   -0.70414  -0.59246  -0.54059  -0.47190  -0.44616
 Alpha  occ. eigenvalues --   -0.43190  -0.39876  -0.34428
 Alpha virt. eigenvalues --    0.07571   0.10467   0.13534   0.13854   0.15920
 Alpha virt. eigenvalues --    0.18321   0.23276   0.24930   0.30352   0.32188
 Alpha virt. eigenvalues --    0.36921   0.39227   0.44055   0.44932   0.49466

  Beta  occ. eigenvalues --  -19.71802 -10.65862 -10.59867  -1.15682  -0.85965
  Beta  occ. eigenvalues --   -0.70414  -0.59246  -0.54059  -0.47190  -0.44616
  Beta  occ. eigenvalues --   -0.43190  -0.39876  -0.34428
  Beta virt. eigenvalues --    0.07571   0.10467   0.13534   0.13854   0.15920
  Beta virt. eigenvalues --    0.18321   0.23276   0.24930   0.30352   0.32188
  Beta virt. eigenvalues --    0.36921   0.39227   0.44055   0.44932   0.49466

 Mulliken charges and spin densities:
               1          2
     1  C   -0.281930  -0.000000
     2  C    0.055768   0.000000
     3  O   -0.374725  -0.000000
     4  H    0.084570   0.000000
     5  H    0.100918   0.000000
     6  H    0.100908  -0.000000
     7  H    0.055245   0.000000
     8  H    0.055246  -0.000000
     9  H    0.204000  -0.000000
 Sum of Mulliken charges =  -0.00000  -0.00000

 Dipole moment (field-independent basis, Debye):
    X=             -0.1775    Y=              1.5965    Z=              0.0006  Tot=              1.6063
 Quadrupole moment (field-independent basis, Debye-Ang):
   XX=            -17.1968   YY=            -20.6584   ZZ=            -20.1373
   XY=             -1.9091   XZ=             -0.0015   YZ=              0.0001

  Exact polarizability:  34.086  -0.644  29.925  -0.001   0.000  27.553
 Approx polarizability:  33.539   0.090  32.563  -0.001   0.001  30.439

                      1                      2                      3
                      A                      A                      A
 Frequencies --    238.6573               280.4282               418.0523
 Red. masses --      1.1539                 1.0665                 2.6205
 Frc consts  --      0.0387                 0.0494                 0.2698
 IR Inten    --     48.7185                67.3711                10.5249

                      4                      5                      6
                      A                      A                      A
 Frequencies --    826.9949               909.0475              1045.3528
 Red. masses --      1.0807                 2.2177                 2.1425
 Frc consts  --      0.4355                 1.0798                 1.3794
 IR Inten    --      0.0582                12.2594                58.4556

                      7                      8                      9
                      A                      A                      A
 Frequencies --   1115.5279              1190.8024              1280.0233
 Red. masses --      2.3227                 1.5068                 1.2438
 Frc consts  --      1.7030                 1.2589                 1.2008
 IR Inten    --     26.6102                 3.6441                69.2504

                     10                     11                     12
                      A                      A                      A
 Frequencies --   1311.6882              1414.0614              1467.1116
 Red. masses --      1.1161                 1.2362                 1.4335
 Frc consts  --      1.1314                 1.4563                 1.8179
 IR Inten    --      0.0097                 2.1140                11.4430

                     13                     14                     15
                      A                      A                      A
 Frequencies --   1496.6947              1515.5304              1545.0647
 Red. masses --      1.0389                 1.0491                 1.0898
 Frc consts  --      1.3712                 1.4197                 1.5328
 IR Inten    --      5.5442                 2.5834                 1.1921

                     16                     17                     18
                      A                      A                      A
 Frequencies --   3007.3255              3036.8286              3060.8599
 Red. masses --      1.0553                 1.1079                 1.0348
 Frc consts  --      5.6234                 6.0197                 5.7118
 IR Inten    --     66.4331                51.6146                15.4551

                     19                     20                     21
                      A                      A                      A
 Frequencies --   3134.4028              3139.3866              3852.9942
 Red. masses --      1.1014                 1.1034                 1.0664
 Frc consts  --      6.3755                 6.4070                 9.3277
 IR Inten    --     27.4345                30.7369                27.2552

 - Thermochemistry -
 -------------------
 Temperature   298.150 Kelvin.  Pressure   1.00000 Atm.
 Atom     1 has atomic number  6 and mass  12.00000

 Molecular mass:    46.04186 amu.
 Principal axes and moments of inertia in atomic units:
                           1         2         3
     Eigenvalues --    51.17298 191.64807 220.38056
           X            0.99911  -0.04224  -0.00001
           Y            0.04224   0.99911  -0.00000
           Z            0.00001   0.00000   1.00000
 This molecule is an asymmetric top.
 Rotational symmetry number  1.
 Rotational temperatures (Kelvin)      1.69257     0.45194     0.39302
 Rotational constants (GHZ):          35.26746     9.41695     8.18920
 Zero-point vibrational energy     211062.1 (Joules/Mol)
                                   50.44506 (Kcal/Mol)
 Warning -- explicit consideration of   3 degrees of freedom as
           vibrations may cause significant error
 Vibrational temperatures:    343.37   403.47   601.48  1189.86  1307.92
          (Kelvin)           1504.03  1605.00  1713.30  1841.67  1887.23
                             2034.52  2110.85  2153.41  2180.51  2223.00
                             4326.87  4369.32  4403.89  4509.71  4516.88
                             5543.60

 Zero-point correction=                           0.080389 (Hartree/Particle)
 Thermal correction to Energy=                    0.084706
 Thermal correction to Enthalpy=                  0.085650
 Thermal correction to Gibbs Free Energy=         0.054974
 Sum of electronic and zero-point Energies=           -154.892860
 Sum of electronic and thermal Energies=              -154.888543
 Sum of electronic and thermal Enthalpies=            -154.887599
 Sum of electronic and thermal Free Energies=         -154.918275

                     E (Thermal)             CV                S
                      KCal/Mol        Cal/Mol-Kelvin    Cal/Mol-Kelvin
 Total                   53.154             13.484             64.564
 Electronic               0.000              0.000              0.000
 Translational            0.889              2.981             37.406
 Rotational               0.889              2.981             22.296
 Vibrational             51.376              7.522              4.862
 Vibration     1          0.657              1.781              1.813
 Vibration     2          0.680              1.710              1.531
 Vibration     3          0.781              1.431              0.899

 Optimization completed.
    -- Stationary point found.
 Normal termination of Gaussian 16 at Tue Jul 30 15:28:35 2019.
