 Gaussian 16, Revision B.01,
 Gaussian 16:  ES64L-G16RevB.01 20-Dec-2017

 -------------------------------------------------------------
 # opt=maxcyc=500 freq=noraman uB2PLYPD3/cc-pvtz int=superfine
 -------------------------------------------------------------

 -------------------
 Title Card Required
 -------------------
 Symbolic Z-matrix:
 Charge =  0 Multiplicity = 2

 SCF Done:  E(UB2PLYPD3) =  -154.118715926     A.U. after   16 cycles
 E2(B2PLYPD3) =    -0.1764683906D+00 E(B2PLYPD3) =    -0.15429518431670D+03
 SCF Done:  E(UB2PLYPD3) =  -154.123056593     A.U. after   19 cycles
 E2(B2PLYPD3) =    -0.1765432850D+00 E(B2PLYPD3) =    -0.15429959987776D+03
 SCF Done:  E(UB2PLYPD3) =  -154.123341814     A.U. after   11 cycles
 E2(B2PLYPD3) =    -0.1766212254D+00 E(B2PLYPD3) =    -0.15429996303929D+03
 SCF Done:  E(UB2PLYPD3) =  -154.123298268     A.U. after   10 cycles
 E2(B2PLYPD3) =    -0.1767381723D+00 E(B2PLYPD3) =    -0.15430003644013D+03
 SCF Done:  E(UB2PLYPD3) =  -154.123284361     A.U. after    8 cycles
 E2(B2PLYPD3) =    -0.1767548436D+00 E(B2PLYPD3) =    -0.15430003920465D+03
 Optimization completed.
    -- Stationary point found.
 Normal termination of Gaussian 16 at Fri Aug  2 14:01:28 2019.

 ----------------------------------------------------------------------
 #N Geom=AllCheck Guess=TCheck SCRF=Check GenChk UB2PLYPD3(FC)/CC-pVTZ
 Freq
 ----------------------------------------------------------------------

 Structure from the checkpoint file:  "/localscratch/388704/Gau-57674.chk"
 -------------------
 Title Card Required
 -------------------
 Charge =  0 Multiplicity = 2

                         Standard orientation:
 ---------------------------------------------------------------------
 Center     Atomic      Atomic             Coordinates (Angstroms)
 Number     Number       Type             X           Y           Z
 ---------------------------------------------------------------------
      1          6           0        1.183561   -0.196761    0.000001
      2          6           0       -0.176207    0.481415    0.000008
      3          8           0       -1.253028   -0.363757    0.000009
      4          1           0        1.983800    0.543165   -0.000265
      5          1           0        1.294355   -0.824442   -0.881998
      6          1           0        1.294592   -0.824044    0.882254
      7          1           0       -0.296298    1.153806    0.865023
      8          1           0       -0.296346    1.153638   -0.865140
 ---------------------------------------------------------------------

 SCF Done:  E(UB2PLYPD3) =  -154.123284361     A.U. after    1 cycles
 E2(B2PLYPD3) =    -0.1767548376D+00 E(B2PLYPD3) =    -0.15430003919868D+03
 E2(B2PLYPD3) =    -0.1767548376D+00 E(B2PLYPD3) =    -0.15430003919868D+03

 The electronic state is 2-A.
 Alpha  occ. eigenvalues --  -19.77424 -10.67156 -10.60912  -1.18428  -0.86083
 Alpha  occ. eigenvalues --   -0.71440  -0.58453  -0.54168  -0.50023  -0.47174
 Alpha  occ. eigenvalues --   -0.45205  -0.39439  -0.36458
 Alpha virt. eigenvalues --    0.07924   0.11564   0.13093   0.15027   0.17156
 Alpha virt. eigenvalues --    0.19992   0.24447   0.29717   0.30955   0.36229
 Alpha virt. eigenvalues --    0.36496   0.43934   0.47884   0.49541   0.50357

  Beta  occ. eigenvalues --  -19.74487 -10.67291 -10.60922  -1.10460  -0.84971
  Beta  occ. eigenvalues --   -0.69859  -0.53466  -0.52688  -0.48748  -0.44497
  Beta  occ. eigenvalues --   -0.43016  -0.34089
  Beta virt. eigenvalues --   -0.03689   0.07996   0.11637   0.13279   0.15038
  Beta virt. eigenvalues --    0.17853   0.20792   0.24470   0.29776   0.31096
  Beta virt. eigenvalues --    0.36720   0.38013   0.44623   0.48183   0.49509

 Mulliken charges and spin densities:
               1          2
     1  C   -0.279008   0.004297
     2  C    0.035196  -0.104540
     3  O   -0.228182   0.943888
     4  H    0.085461  -0.002410
     5  H    0.100229   0.001248
     6  H    0.100225   0.001252
     7  H    0.093025   0.078096
     8  H    0.093053   0.078169
 Sum of Mulliken charges =   0.00000   1.00000

 Dipole moment (field-independent basis, Debye):
    X=              1.5224    Y=              1.2084    Z=             -0.0001  Tot=              1.9437
 Quadrupole moment (field-independent basis, Debye-Ang):
   XX=            -21.9753   YY=            -19.1277   ZZ=            -18.1255
   XY=             -0.9387   XZ=              0.0002   YZ=             -0.0004

  Exact polarizability:  31.686   0.845  29.182  -0.001   0.001  27.752
 Approx polarizability:  31.145   2.068  31.424   0.000  -0.000  29.397

 ******    1 imaginary frequencies (negative Signs) ******

                      1                      2                      3
                      A                      A                      A
 Frequencies --   -269.5856               243.8935               433.5346
 Red. masses --      1.6115                 1.0520                 2.8846
 Frc consts  --      0.0690                 0.0369                 0.3194
 IR Inten    --     26.8264                 6.4087                 6.3599

                      4                      5                      6
                      A                      A                      A
 Frequencies --    866.5622               896.9180              1076.5115
 Red. masses --      1.0602                 2.4650                 3.3119
 Frc consts  --      0.4691                 1.1683                 2.2613
 IR Inten    --      0.0022                 0.1093                12.4280

                      7                      8                      9
                      A                      A                      A
 Frequencies --   1109.7883              1261.3664              1357.5638
 Red. masses --      2.0266                 1.2512                 1.1640
 Frc consts  --      1.4706                 1.1729                 1.2640
 IR Inten    --      8.6926                 0.0681                 6.6622

                     10                     11                     12
                      A                      A                      A
 Frequencies --   1408.3855              1423.0831              1499.8532
 Red. masses --      1.2003                 1.3245                 1.0392
 Frc consts  --      1.4027                 1.5803                 1.3774
 IR Inten    --     15.4650                24.7040                 5.1299

                     13                     14                     15
                      A                      A                      A
 Frequencies --   1510.5127              2938.8806              2952.1701
 Red. masses --      1.0466                 1.0564                 1.0872
 Frc consts  --      1.4070                 5.3757                 5.5829
 IR Inten    --      5.4799                23.1084                 5.1454

                     16                     17                     18
                      A                      A                      A
 Frequencies --   3057.8382              3130.0445              3140.3533
 Red. masses --      1.0355                 1.1010                 1.1034
 Frc consts  --      5.7044                 6.3552                 6.4114
 IR Inten    --     13.0981                20.7845                19.0125

 - Thermochemistry -
 -------------------
 Temperature   298.150 Kelvin.  Pressure   1.00000 Atm.
 Atom     1 has atomic number  6 and mass  12.00000

 Molecular mass:    45.03404 amu.
 Principal axes and moments of inertia in atomic units:
                           1         2         3
     Eigenvalues --    45.32188 187.88826 211.23441
           X            0.99918  -0.04061   0.00000
           Y            0.04061   0.99918  -0.00000
           Z           -0.00000   0.00000   1.00000
 This molecule is an asymmetric top.
 Rotational symmetry number  1.
 Rotational temperatures (Kelvin)      1.91108     0.46099     0.41004
 Rotational constants (GHZ):          39.82053     9.60540     8.54378
    1 imaginary frequencies ignored.
 Zero-point vibrational energy     169315.0 (Joules/Mol)
                                   40.46726 (Kcal/Mol)
 Warning -- explicit consideration of   2 degrees of freedom as
           vibrations may cause significant error
 Vibrational temperatures:    350.91   623.76  1246.79  1290.46  1548.86
          (Kelvin)           1596.74  1814.82  1953.23  2026.35  2047.50
                             2157.95  2173.29  4228.39  4247.51  4399.55
                             4503.44  4518.27

 Zero-point correction=                           0.064489 (Hartree/Particle)
 Thermal correction to Energy=                    0.068307
 Thermal correction to Enthalpy=                  0.069251
 Thermal correction to Gibbs Free Energy=         0.038847
 Sum of electronic and zero-point Energies=           -154.235551
 Sum of electronic and thermal Energies=              -154.231732
 Sum of electronic and thermal Enthalpies=            -154.230788
 Sum of electronic and thermal Free Energies=         -154.261192

                     E (Thermal)             CV                S
                      KCal/Mol        Cal/Mol-Kelvin    Cal/Mol-Kelvin
 Total                   42.863             11.395             63.992
 Electronic               0.000              0.000              1.377
 Translational            0.889              2.981             37.340
 Rotational               0.889              2.981             22.113
 Vibrational             41.086              5.433              3.161
 Vibration     1          0.659              1.773              1.774
 Vibration     2          0.794              1.397              0.847

 Optimization completed.
    -- Stationary point found.
 Normal termination of Gaussian 16 at Fri Aug  2 14:06:14 2019.
