 Gaussian 16, Revision B.01,
 Gaussian 16:  ES64L-G16RevB.01 20-Dec-2017

 -----------------------------------------------
 # opt=maxcyc=500 freq=noraman uB2PLYPD3/cc-pvtz
 -----------------------------------------------

 -------------------
 Title Card Required
 -------------------
 Symbolic Z-matrix:
 Charge =  0 Multiplicity = 2

 SCF Done:  E(UB2PLYPD3) =  -78.9857784586     A.U. after   13 cycles
 E2(B2PLYPD3) =    -0.1076033497D+00 E(B2PLYPD3) =    -0.79093381808274D+02
 SCF Done:  E(UB2PLYPD3) =  -78.9944090113     A.U. after   12 cycles
 E2(B2PLYPD3) =    -0.1075057065D+00 E(B2PLYPD3) =    -0.79101914717852D+02
 SCF Done:  E(UB2PLYPD3) =  -78.9966775180     A.U. after   12 cycles
 E2(B2PLYPD3) =    -0.1075599843D+00 E(B2PLYPD3) =    -0.79104237502287D+02
 SCF Done:  E(UB2PLYPD3) =  -78.9968299610     A.U. after   10 cycles
 E2(B2PLYPD3) =    -0.1075760423D+00 E(B2PLYPD3) =    -0.79104406003276D+02
 SCF Done:  E(UB2PLYPD3) =  -78.9968470823     A.U. after    9 cycles
 E2(B2PLYPD3) =    -0.1075842284D+00 E(B2PLYPD3) =    -0.79104431310618D+02
 SCF Done:  E(UB2PLYPD3) =  -78.9968506295     A.U. after    8 cycles
 E2(B2PLYPD3) =    -0.1075873317D+00 E(B2PLYPD3) =    -0.79104437961206D+02
 Optimization completed.
    -- Stationary point found.
 Normal termination of Gaussian 16 at Fri May 31 22:10:28 2019.

 ----------------------------------------------------------------------
 #N Geom=AllCheck Guess=TCheck SCRF=Check GenChk UB2PLYPD3(FC)/CC-pVTZ
 Freq
 ----------------------------------------------------------------------

 Structure from the checkpoint file:  "/localscratch/339542/Gau-77526.chk"
 -------------------
 Title Card Required
 -------------------
 Charge =  0 Multiplicity = 2

                         Standard orientation:
 ---------------------------------------------------------------------
 Center     Atomic      Atomic             Coordinates (Angstroms)
 Number     Number       Type             X           Y           Z
 ---------------------------------------------------------------------
      1          6           0        0.792142    0.000000   -0.020588
      2          1           0        1.345841    0.922897    0.045095
      3          1           0        1.345831   -0.922903    0.045095
      4          6           0       -0.692237    0.000002   -0.001251
      5          1           0       -1.102342    0.882878   -0.490929
      6          1           0       -1.086416   -0.000114    1.022889
      7          1           0       -1.102344   -0.882769   -0.491122
 ---------------------------------------------------------------------

 SCF Done:  E(UB2PLYPD3) =  -78.9968506295     A.U. after    1 cycles
 E2(B2PLYPD3) =    -0.1075873329D+00 E(B2PLYPD3) =    -0.79104437962336D+02
 E2(B2PLYPD3) =    -0.1075873329D+00 E(B2PLYPD3) =    -0.79104437962336D+02

 The electronic state is 2-A.
 Alpha  occ. eigenvalues --  -10.61569 -10.60642  -0.87176  -0.70639  -0.52275
 Alpha  occ. eigenvalues --   -0.48338  -0.45623  -0.42035  -0.26353
 Alpha virt. eigenvalues --    0.08803   0.11936   0.13734   0.15765   0.18461
 Alpha virt. eigenvalues --    0.26087   0.30562   0.31190   0.33583   0.38164
 Alpha virt. eigenvalues --    0.40412   0.41868   0.50844   0.51992   0.53682

  Beta  occ. eigenvalues --  -10.60790 -10.59845  -0.84794  -0.67151  -0.51536
  Beta  occ. eigenvalues --   -0.46083  -0.44701  -0.41536
  Beta virt. eigenvalues --    0.02497   0.08956   0.12633   0.13847   0.15956
  Beta virt. eigenvalues --    0.18618   0.26366   0.30740   0.31304   0.34090
  Beta virt. eigenvalues --    0.40679   0.44864   0.45509   0.51132   0.53184

 Mulliken charges and spin densities:
               1          2
     1  C   -0.290915   1.078005
     2  H    0.124257  -0.041947
     3  H    0.124255  -0.041946
     4  C   -0.256617  -0.080528
     5  H    0.100222   0.013740
     6  H    0.098576   0.058927
     7  H    0.100222   0.013750
 Sum of Mulliken charges =  -0.00000   1.00000

 Dipole moment (field-independent basis, Debye):
    X=             -0.2146    Y=             -0.0000    Z=              0.1179  Tot=              0.2448
 Quadrupole moment (field-independent basis, Debye-Ang):
   XX=            -14.4581   YY=            -13.6811   ZZ=            -15.2606
   XY=              0.0000   XZ=              0.1608   YZ=              0.0000

  Exact polarizability:  28.768   0.000  24.446  -0.263  -0.000  21.268
 Approx polarizability:  27.459   0.000  26.307  -0.271  -0.000  23.403

                      1                      2                      3
                      A                      A                      A
 Frequencies --    117.1687               480.1587               818.1948
 Red. masses --      1.0082                 1.2156                 1.0503
 Frc consts  --      0.0082                 0.1651                 0.4142
 IR Inten    --      0.0196                51.6421                 1.6060

                      4                      5                      6
                      A                      A                      A
 Frequencies --    990.8032              1073.9986              1207.4513
 Red. masses --      1.3310                 3.2756                 1.4710
 Frc consts  --      0.7698                 2.2261                 1.2636
 IR Inten    --      0.4730                 0.0480                 2.1364

                      7                      8                      9
                      A                      A                      A
 Frequencies --   1413.0751              1484.0901              1497.1602
 Red. masses --      1.1938                 1.0955                 1.0343
 Frc consts  --      1.4044                 1.4216                 1.3659
 IR Inten    --      1.5426                 2.9178                 4.9676

                     10                     11                     12
                      A                      A                      A
 Frequencies --   1498.2654              2985.6955              3071.0927
 Red. masses --      1.1344                 1.0576                 1.0720
 Frc consts  --      1.5003                 5.5549                 5.9569
 IR Inten    --      2.4859                24.6000                22.1346

                     13                     14                     15
                      A                      A                      A
 Frequencies --   3115.6140              3174.9594              3277.6261
 Red. masses --      1.1020                 1.0507                 1.1189
 Frc consts  --      6.3026                 6.2405                 7.0820
 IR Inten    --     20.2493                14.5979                13.2205

 - Thermochemistry -
 -------------------
 Temperature   298.150 Kelvin.  Pressure   1.00000 Atm.
 Atom     1 has atomic number  6 and mass  12.00000

 Molecular mass:    29.03913 amu.
 Principal axes and moments of inertia in atomic units:
                           1         2         3
     Eigenvalues --    17.27127  78.94501  85.15542
           X            0.99999   0.00000   0.00470
           Y           -0.00000   1.00000   0.00000
           Z           -0.00470  -0.00000   0.99999
 This molecule is an asymmetric top.
 Rotational symmetry number  1.
 Rotational temperatures (Kelvin)      5.01491     1.09714     1.01713
 Rotational constants (GHZ):         104.49384    22.86074    21.19350
 Zero-point vibrational energy     156742.8 (Joules/Mol)
                                   37.46243 (Kcal/Mol)
 Warning -- explicit consideration of   2 degrees of freedom as
           vibrations may cause significant error
 Vibrational temperatures:    168.58   690.84  1177.20  1425.54  1545.24
          (Kelvin)           1737.25  2033.10  2135.27  2154.08  2155.67
                             4295.75  4418.62  4482.67  4568.06  4715.77

 Zero-point correction=                           0.059700 (Hartree/Particle)
 Thermal correction to Energy=                    0.063652
 Thermal correction to Enthalpy=                  0.064596
 Thermal correction to Gibbs Free Energy=         0.035561
 Sum of electronic and zero-point Energies=            -79.044738
 Sum of electronic and thermal Energies=               -79.040786
 Sum of electronic and thermal Enthalpies=             -79.039842
 Sum of electronic and thermal Free Energies=          -79.068877

                     E (Thermal)             CV                S
                      KCal/Mol        Cal/Mol-Kelvin    Cal/Mol-Kelvin
 Total                   39.942             11.034             61.109
 Electronic               0.000              0.000              1.377
 Translational            0.889              2.981             36.032
 Rotational               0.889              2.981             19.391
 Vibrational             38.165              5.073              4.309
 Vibration     1          0.608              1.935              3.147
 Vibration     2          0.837              1.294              0.710

 Optimization completed.
    -- Stationary point found.
 Normal termination of Gaussian 16 at Fri May 31 22:12:15 2019.
