 Gaussian 16, Revision B.01,
 Gaussian 16:  ES64L-G16RevB.01 20-Dec-2017

 -----------------------------------------------
 # opt=maxcyc=500 freq=noraman uB2PLYPD3/cc-pvtz
 -----------------------------------------------

 -------------------
 Title Card Required
 -------------------
 Symbolic Z-matrix:
 Charge =  0 Multiplicity = 1

 SCF Done:  E(UB2PLYPD3) =  -79.6542028612     A.U. after    9 cycles
 E2(B2PLYPD3) =    -0.1198715058D+00 E(B2PLYPD3) =    -0.79774074367044D+02
 SCF Done:  E(UB2PLYPD3) =  -79.6542090000     A.U. after    6 cycles
 E2(B2PLYPD3) =    -0.1198681011D+00 E(B2PLYPD3) =    -0.79774077101041D+02
 Optimization completed.
    -- Stationary point found.
 Normal termination of Gaussian 16 at Fri May 31 22:12:47 2019.

 ----------------------------------------------------------------------
 #N Geom=AllCheck Guess=TCheck SCRF=Check GenChk UB2PLYPD3(FC)/CC-pVTZ
 Freq
 ----------------------------------------------------------------------

 Structure from the checkpoint file:  "/localscratch/339542/Gau-81490.chk"
 -------------------
 Title Card Required
 -------------------
 Charge =  0 Multiplicity = 1

                         Standard orientation:
 ---------------------------------------------------------------------
 Center     Atomic      Atomic             Coordinates (Angstroms)
 Number     Number       Type             X           Y           Z
 ---------------------------------------------------------------------
      1          6           0       -0.762720    0.000005   -0.000008
      2          1           0       -1.158246    0.961998   -0.323182
      3          1           0       -1.158303   -0.760892   -0.671487
      4          1           0       -1.158257   -0.201113    0.994701
      5          6           0        0.762723   -0.000003    0.000001
      6          1           0        1.158288    0.200806   -0.994753
      7          1           0        1.158263   -0.961896    0.323470
      8          1           0        1.158237    0.761089    0.671295
 ---------------------------------------------------------------------

 SCF Done:  E(UB2PLYPD3) =  -79.6542090000     A.U. after    1 cycles
 E2(B2PLYPD3) =    -0.1198681014D+00 E(B2PLYPD3) =    -0.79774077101335D+02
 E2(B2PLYPD3) =    -0.1198681014D+00 E(B2PLYPD3) =    -0.79774077101335D+02

 The electronic state is 1-A.
 Alpha  occ. eigenvalues --  -10.59906 -10.59867  -0.86451  -0.71131  -0.50373
 Alpha  occ. eigenvalues --   -0.50372  -0.42840  -0.40406  -0.40405
 Alpha virt. eigenvalues --    0.08134   0.12143   0.14701   0.14701   0.17328
 Alpha virt. eigenvalues --    0.17328   0.26151   0.30481   0.32525   0.32525
 Alpha virt. eigenvalues --    0.32892   0.32892   0.50593   0.50593   0.52797

  Beta  occ. eigenvalues --  -10.59906 -10.59867  -0.86451  -0.71131  -0.50373
  Beta  occ. eigenvalues --   -0.50372  -0.42840  -0.40406  -0.40405
  Beta virt. eigenvalues --    0.08134   0.12143   0.14701   0.14701   0.17328
  Beta virt. eigenvalues --    0.17328   0.26151   0.30481   0.32525   0.32525
  Beta virt. eigenvalues --    0.32892   0.32892   0.50593   0.50593   0.52797

 Mulliken charges and spin densities:
               1          2
     1  C   -0.282981   0.000000
     2  H    0.094331  -0.000000
     3  H    0.094326  -0.000000
     4  H    0.094323  -0.000000
     5  C   -0.282980  -0.000000
     6  H    0.094326  -0.000000
     7  H    0.094328   0.000000
     8  H    0.094327   0.000000
 Sum of Mulliken charges =  -0.00000   0.00000

 Dipole moment (field-independent basis, Debye):
    X=              0.0000    Y=             -0.0000    Z=              0.0000  Tot=              0.0000
 Quadrupole moment (field-independent basis, Debye-Ang):
   XX=            -15.6664   YY=            -14.9630   ZZ=            -14.9632
   XY=              0.0000   XZ=             -0.0000   YZ=             -0.0000

  Exact polarizability:  28.998   0.000  25.797  -0.000  -0.000  25.797
 Approx polarizability:  28.179   0.000  28.302  -0.000   0.000  28.302

                      1                      2                      3
                      A                      A                      A
 Frequencies --    310.0781               830.3513               830.3730
 Red. masses --      1.0078                 1.0581                 1.0581
 Frc consts  --      0.0571                 0.4298                 0.4299
 IR Inten    --      0.0000                 3.4597                 3.4592

                      4                      5                      6
                      A                      A                      A
 Frequencies --   1010.3101              1232.2816              1232.3026
 Red. masses --      3.2788                 1.4685                 1.4685
 Frc consts  --      1.9718                 1.3138                 1.3139
 IR Inten    --      0.0000                 0.0000                 0.0000

                      7                      8                      9
                      A                      A                      A
 Frequencies --   1420.4059              1434.5329              1518.1899
 Red. masses --      1.1986                 1.2531                 1.0177
 Frc consts  --      1.4248                 1.5194                 1.3821
 IR Inten    --      0.9538                 0.0000                 0.0000

                     10                     11                     12
                      A                      A                      A
 Frequencies --   1518.1947              1520.4762              1520.4802
 Red. masses --      1.0177                 1.0619                 1.0619
 Frc consts  --      1.3821                 1.4464                 1.4464
 IR Inten    --      0.0001                 8.3256                 8.3255

                     13                     14                     15
                      A                      A                      A
 Frequencies --   3053.8359              3054.4133              3106.6611
 Red. masses --      1.0365                 1.0339                 1.1012
 Frc consts  --      5.6951                 5.6829                 6.2621
 IR Inten    --      0.0064                56.9191                 0.0001

                     16                     17                     18
                      A                      A                      A
 Frequencies --   3106.7395              3130.8364              3130.9131
 Red. masses --      1.1012                 1.1025                 1.1025
 Frc consts  --      6.2625                 6.3674                 6.3678
 IR Inten    --      0.0000                62.9492                62.9418

 - Thermochemistry -
 -------------------
 Temperature   298.150 Kelvin.  Pressure   1.00000 Atm.
 Atom     1 has atomic number  6 and mass  12.00000

 Molecular mass:    30.04695 amu.
 Principal axes and moments of inertia in atomic units:
                           1         2         3
     Eigenvalues --    22.23914  89.94826  89.94858
           X            1.00000   0.00000  -0.00000
           Y           -0.00000   1.00000   0.00000
           Z            0.00000  -0.00000   1.00000
 This molecule is an asymmetric top.
 Rotational symmetry number  1.
 Rotational temperatures (Kelvin)      3.89466     0.96293     0.96293
 Rotational constants (GHZ):          81.15156    20.06422    20.06414
 Zero-point vibrational energy     197152.8 (Joules/Mol)
                                   47.12065 (Kcal/Mol)
 Warning -- explicit consideration of   1 degrees of freedom as
           vibrations may cause significant error
 Vibrational temperatures:    446.13  1194.69  1194.72  1453.61  1772.98
          (Kelvin)           1773.01  2043.65  2063.97  2184.34  2184.34
                             2187.63  2187.63  4393.79  4394.62  4469.79
                             4469.91  4504.58  4504.69

 Zero-point correction=                           0.075092 (Hartree/Particle)
 Thermal correction to Energy=                    0.078568
 Thermal correction to Enthalpy=                  0.079512
 Thermal correction to Gibbs Free Energy=         0.051989
 Sum of electronic and zero-point Energies=            -79.698986
 Sum of electronic and thermal Energies=               -79.695509
 Sum of electronic and thermal Enthalpies=             -79.694565
 Sum of electronic and thermal Free Energies=          -79.722088

                     E (Thermal)             CV                S
                      KCal/Mol        Cal/Mol-Kelvin    Cal/Mol-Kelvin
 Total                   49.302             10.029             57.927
 Electronic               0.000              0.000              0.000
 Translational            0.889              2.981             36.134
 Rotational               0.889              2.981             19.826
 Vibrational             47.525              4.068              1.967
 Vibration     1          0.699              1.655              1.362

 Optimization completed.
    -- Stationary point found.
 Normal termination of Gaussian 16 at Fri May 31 22:15:16 2019.
