 Gaussian 16, Revision B.01,
 Gaussian 16:  ES64L-G16RevB.01 20-Dec-2017

 ----------------------------------------------------------------------
 # opt=(maxcyc=500,modredundant) uB2PLYPD3/cc-pvtz scf=maxcyc=500 nosym
 m
 ----------------------------------------------------------------------

 -------------------
 Title Card Required
 -------------------
 Symbolic Z-matrix:
 Charge =  0 Multiplicity = 1

 SCF Done:  E(UB2PLYPD3) =  -79.6542028615     A.U. after    9 cycles
 E2(B2PLYPD3) =    -0.1198715058D+00 E(B2PLYPD3) =    -0.79774074367338D+02
 SCF Done:  E(UB2PLYPD3) =  -79.6542090103     A.U. after    6 cycles
 E2(B2PLYPD3) =    -0.1198681009D+00 E(B2PLYPD3) =    -0.79774077111257D+02
 Optimization completed.
    -- Stationary point found.
 SCF Done:  E(UB2PLYPD3) =  -79.6539026435     A.U. after    8 cycles
 E2(B2PLYPD3) =    -0.1198738675D+00 E(B2PLYPD3) =    -0.79773776511032D+02
 SCF Done:  E(UB2PLYPD3) =  -79.6539345097     A.U. after    7 cycles
 E2(B2PLYPD3) =    -0.1198747923D+00 E(B2PLYPD3) =    -0.79773809302049D+02
 Optimization completed.
 SCF Done:  E(UB2PLYPD3) =  -79.6531448441     A.U. after    8 cycles
 E2(B2PLYPD3) =    -0.1198904342D+00 E(B2PLYPD3) =    -0.79773035278338D+02
 SCF Done:  E(UB2PLYPD3) =  -79.6531676528     A.U. after    7 cycles
 E2(B2PLYPD3) =    -0.1198935221D+00 E(B2PLYPD3) =    -0.79773061174938D+02
 SCF Done:  E(UB2PLYPD3) =  -79.6520660390     A.U. after    8 cycles
 E2(B2PLYPD3) =    -0.1199136475D+00 E(B2PLYPD3) =    -0.79771979686488D+02
 SCF Done:  E(UB2PLYPD3) =  -79.6520791423     A.U. after    7 cycles
 E2(B2PLYPD3) =    -0.1199170692D+00 E(B2PLYPD3) =    -0.79771996211546D+02
 SCF Done:  E(UB2PLYPD3) =  -79.6509255969     A.U. after    8 cycles
 E2(B2PLYPD3) =    -0.1199354298D+00 E(B2PLYPD3) =    -0.79770861026747D+02
 SCF Done:  E(UB2PLYPD3) =  -79.6509379859     A.U. after    7 cycles
 E2(B2PLYPD3) =    -0.1199368425D+00 E(B2PLYPD3) =    -0.79770874828337D+02
 E2(B2PLYPD3) =    -0.1199486976D+00 E(B2PLYPD3) =    -0.79769986847078D+02
 E2(B2PLYPD3) =    -0.1199475309D+00 E(B2PLYPD3) =    -0.79770010628374D+02
 E2(B2PLYPD3) =    -0.1199472303D+00 E(B2PLYPD3) =    -0.79770010931197D+02
 E2(B2PLYPD3) =    -0.1199513120D+00 E(B2PLYPD3) =    -0.79769643598324D+02
 E2(B2PLYPD3) =    -0.1199494592D+00 E(B2PLYPD3) =    -0.79769682392845D+02
 E2(B2PLYPD3) =    -0.1199465921D+00 E(B2PLYPD3) =    -0.79769966543729D+02
 E2(B2PLYPD3) =    -0.1199473646D+00 E(B2PLYPD3) =    -0.79770005871652D+02
 E2(B2PLYPD3) =    -0.1199363442D+00 E(B2PLYPD3) =    -0.79770842285766D+02
 E2(B2PLYPD3) =    -0.1199371448D+00 E(B2PLYPD3) =    -0.79770866688206D+02
 E2(B2PLYPD3) =    -0.1199193769D+00 E(B2PLYPD3) =    -0.79771973721554D+02
 E2(B2PLYPD3) =    -0.1199134253D+00 E(B2PLYPD3) =    -0.79771981210007D+02
 E2(B2PLYPD3) =    -0.1199167872D+00 E(B2PLYPD3) =    -0.79771997200270D+02
 E2(B2PLYPD3) =    -0.1199349954D+00 E(B2PLYPD3) =    -0.79770859114173D+02
 E2(B2PLYPD3) =    -0.1199363197D+00 E(B2PLYPD3) =    -0.79770873465472D+02
 E2(B2PLYPD3) =    -0.1199480916D+00 E(B2PLYPD3) =    -0.79769984463824D+02
 E2(B2PLYPD3) =    -0.1199471120D+00 E(B2PLYPD3) =    -0.79770009513702D+02
 E2(B2PLYPD3) =    -0.1199510360D+00 E(B2PLYPD3) =    -0.79769644094464D+02
 E2(B2PLYPD3) =    -0.1199499966D+00 E(B2PLYPD3) =    -0.79769682189517D+02
 E2(B2PLYPD3) =    -0.1199466515D+00 E(B2PLYPD3) =    -0.79769966366508D+02
 E2(B2PLYPD3) =    -0.1199471803D+00 E(B2PLYPD3) =    -0.79770004119123D+02
 SCF Done:  E(UB2PLYPD3) =  -79.6509024465     A.U. after    8 cycles
 E2(B2PLYPD3) =    -0.1199361163D+00 E(B2PLYPD3) =    -0.79770838562800D+02
 SCF Done:  E(UB2PLYPD3) =  -79.6509265446     A.U. after    7 cycles
 E2(B2PLYPD3) =    -0.1199364581D+00 E(B2PLYPD3) =    -0.79770863002753D+02
 SCF Done:  E(UB2PLYPD3) =  -79.6520516794     A.U. after    8 cycles
 E2(B2PLYPD3) =    -0.1199187809D+00 E(B2PLYPD3) =    -0.79771970460331D+02
 SCF Done:  E(UB2PLYPD3) =  -79.6520676199     A.U. after    7 cycles
 E2(B2PLYPD3) =    -0.1199168275D+00 E(B2PLYPD3) =    -0.79771984447460D+02
 SCF Done:  E(UB2PLYPD3) =  -79.6531395277     A.U. after    8 cycles
 E2(B2PLYPD3) =    -0.1198974314D+00 E(B2PLYPD3) =    -0.79773036959085D+02
 SCF Done:  E(UB2PLYPD3) =  -79.6531593602     A.U. after    7 cycles
 E2(B2PLYPD3) =    -0.1198933953D+00 E(B2PLYPD3) =    -0.79773052755510D+02
 SCF Done:  E(UB2PLYPD3) =  -79.6539015501     A.U. after    8 cycles
 E2(B2PLYPD3) =    -0.1198787293D+00 E(B2PLYPD3) =    -0.79773780279387D+02
 SCF Done:  E(UB2PLYPD3) =  -79.6539310282     A.U. after    7 cycles
 E2(B2PLYPD3) =    -0.1198747961D+00 E(B2PLYPD3) =    -0.79773805824369D+02
    -- Stationary point found.
 SCF Done:  E(UB2PLYPD3) =  -79.6541739765     A.U. after    7 cycles
 E2(B2PLYPD3) =    -0.1198695960D+00 E(B2PLYPD3) =    -0.79774043572476D+02
 SCF Done:  E(UB2PLYPD3) =  -79.6542094554     A.U. after    6 cycles
 E2(B2PLYPD3) =    -0.1198676382D+00 E(B2PLYPD3) =    -0.79774077093597D+02
 Optimization completed.
    -- Stationary point found.

                          Input orientation:
 ---------------------------------------------------------------------
 Center     Atomic      Atomic             Coordinates (Angstroms)
 Number     Number       Type             X           Y           Z
 ---------------------------------------------------------------------
      1          6           0        0.762786    0.000703   -0.000381
      2          1           0        1.157642    0.875486    0.514499
      3          1           0        1.159314   -0.882140    0.499216
      4          1           0        1.157735    0.009765   -1.015371
      5          6           0       -0.762768   -0.000709    0.000406
      6          1           0       -1.157637   -0.010627    1.015413
      7          1           0       -1.157705   -0.875036   -0.515199
      8          1           0       -1.159295    0.882574   -0.498415
 ---------------------------------------------------------------------

 Alpha  occ. eigenvalues --  -10.59906 -10.59867  -0.86450  -0.71132  -0.50375
 Alpha  occ. eigenvalues --   -0.50372  -0.42835  -0.40409  -0.40406
 Alpha virt. eigenvalues --    0.08134   0.12144   0.14701   0.14702   0.17328
 Alpha virt. eigenvalues --    0.17328   0.26149   0.30482   0.32524   0.32524
 Alpha virt. eigenvalues --    0.32892   0.32894   0.50595   0.50595   0.52797

  Beta  occ. eigenvalues --  -10.59906 -10.59867  -0.86450  -0.71132  -0.50375
  Beta  occ. eigenvalues --   -0.50372  -0.42835  -0.40409  -0.40406
  Beta virt. eigenvalues --    0.08134   0.12144   0.14701   0.14702   0.17328
  Beta virt. eigenvalues --    0.17328   0.26149   0.30482   0.32524   0.32524
  Beta virt. eigenvalues --    0.32892   0.32894   0.50595   0.50595   0.52797

 Mulliken charges and spin densities:
               1          2
     1  C   -0.283009   0.000000
     2  H    0.094337  -0.000000
     3  H    0.094338   0.000000
     4  H    0.094334  -0.000000
     5  C   -0.283009  -0.000000
     6  H    0.094336   0.000000
     7  H    0.094335   0.000000
     8  H    0.094338   0.000000
 Sum of Mulliken charges =  -0.00000   0.00000

 Dipole moment (field-independent basis, Debye):
    X=             -0.0000    Y=              0.0000    Z=              0.0000  Tot=              0.0000
 Quadrupole moment (field-independent basis, Debye-Ang):
   XX=            -15.6669   YY=            -14.9630   ZZ=            -14.9625
   XY=             -0.0009   XZ=              0.0005   YZ=              0.0004

 Normal termination of Gaussian 16 at Sat Jun  1 00:46:16 2019.
