 Gaussian 16, Revision B.01,
 Gaussian 16:  ES64L-G16RevB.01 20-Dec-2017

 ----------------------------------------------------------------------
 # opt=(maxcyc=500,modredundant) uB2PLYPD3/cc-pvtz scf=maxcyc=500 nosym
 m
 ----------------------------------------------------------------------

 -------------------
 Title Card Required
 -------------------
 Symbolic Z-matrix:
 Charge =  0 Multiplicity = 1

 SCF Done:  E(UB2PLYPD3) =  -117.668710544     A.U. after   11 cycles
 E2(B2PLYPD3) =    -0.1667679103D+00 E(B2PLYPD3) =    -0.11783547845394D+03
 SCF Done:  E(UB2PLYPD3) =  -117.668821906     A.U. after    8 cycles
 E2(B2PLYPD3) =    -0.1666993806D+00 E(B2PLYPD3) =    -0.11783552128712D+03
 SCF Done:  E(UB2PLYPD3) =  -117.668821466     A.U. after    6 cycles
 E2(B2PLYPD3) =    -0.1667003475D+00 E(B2PLYPD3) =    -0.11783552181341D+03
 Optimization completed.
    -- Stationary point found.
 SCF Done:  E(UB2PLYPD3) =  -117.668597717     A.U. after    9 cycles
 E2(B2PLYPD3) =    -0.1667074580D+00 E(B2PLYPD3) =    -0.11783530517538D+03
 SCF Done:  E(UB2PLYPD3) =  -117.668621017     A.U. after    8 cycles
 E2(B2PLYPD3) =    -0.1667103809D+00 E(B2PLYPD3) =    -0.11783533139802D+03
 SCF Done:  E(UB2PLYPD3) =  -117.668628569     A.U. after    7 cycles
 E2(B2PLYPD3) =    -0.1667079889D+00 E(B2PLYPD3) =    -0.11783533655741D+03
 Optimization completed.
 SCF Done:  E(UB2PLYPD3) =  -117.668062806     A.U. after    9 cycles
 E2(B2PLYPD3) =    -0.1667217497D+00 E(B2PLYPD3) =    -0.11783478455564D+03
 SCF Done:  E(UB2PLYPD3) =  -117.668082070     A.U. after    8 cycles
 E2(B2PLYPD3) =    -0.1667241293D+00 E(B2PLYPD3) =    -0.11783480619905D+03
 SCF Done:  E(UB2PLYPD3) =  -117.667282143     A.U. after   10 cycles
 E2(B2PLYPD3) =    -0.1667429839D+00 E(B2PLYPD3) =    -0.11783402512645D+03
 SCF Done:  E(UB2PLYPD3) =  -117.667290345     A.U. after    8 cycles
 E2(B2PLYPD3) =    -0.1667456447D+00 E(B2PLYPD3) =    -0.11783403598942D+03
 E2(B2PLYPD3) =    -0.1667640134D+00 E(B2PLYPD3) =    -0.11783319698901D+03
 E2(B2PLYPD3) =    -0.1667642104D+00 E(B2PLYPD3) =    -0.11783320552637D+03
 E2(B2PLYPD3) =    -0.1667776900D+00 E(B2PLYPD3) =    -0.11783253088371D+03
 E2(B2PLYPD3) =    -0.1667751234D+00 E(B2PLYPD3) =    -0.11783255232427D+03
 E2(B2PLYPD3) =    -0.1667753406D+00 E(B2PLYPD3) =    -0.11783255285242D+03
 E2(B2PLYPD3) =    -0.1667810254D+00 E(B2PLYPD3) =    -0.11783226437627D+03
 E2(B2PLYPD3) =    -0.1667812201D+00 E(B2PLYPD3) =    -0.11783230463903D+03
 E2(B2PLYPD3) =    -0.1667815177D+00 E(B2PLYPD3) =    -0.11783230491236D+03
 E2(B2PLYPD3) =    -0.1667769238D+00 E(B2PLYPD3) =    -0.11783251840779D+03
 E2(B2PLYPD3) =    -0.1667771102D+00 E(B2PLYPD3) =    -0.11783255874495D+03
 E2(B2PLYPD3) =    -0.1667563299D+00 E(B2PLYPD3) =    -0.11783404648792D+03
 E2(B2PLYPD3) =    -0.1667749668D+00 E(B2PLYPD3) =    -0.11783321853473D+03
 E2(B2PLYPD3) =    -0.1667754544D+00 E(B2PLYPD3) =    -0.11783322628499D+03
 E2(B2PLYPD3) =    -0.1667886350D+00 E(B2PLYPD3) =    -0.11783254874798D+03
 E2(B2PLYPD3) =    -0.1667830604D+00 E(B2PLYPD3) =    -0.11783256837948D+03
 E2(B2PLYPD3) =    -0.1667820407D+00 E(B2PLYPD3) =    -0.11783256864021D+03
 E2(B2PLYPD3) =    -0.1667878191D+00 E(B2PLYPD3) =    -0.11783226502494D+03
 E2(B2PLYPD3) =    -0.1667802695D+00 E(B2PLYPD3) =    -0.11783230492324D+03
 E2(B2PLYPD3) =    -0.1667774137D+00 E(B2PLYPD3) =    -0.11783250161941D+03
 E2(B2PLYPD3) =    -0.1667751328D+00 E(B2PLYPD3) =    -0.11783254338089D+03
 SCF Done:  E(UB2PLYPD3) =  -117.666404049     A.U. after    9 cycles
 E2(B2PLYPD3) =    -0.1667634827D+00 E(B2PLYPD3) =    -0.11783316753197D+03
 SCF Done:  E(UB2PLYPD3) =  -117.666425457     A.U. after    8 cycles
 E2(B2PLYPD3) =    -0.1667647619D+00 E(B2PLYPD3) =    -0.11783319021891D+03
 SCF Done:  E(UB2PLYPD3) =  -117.667263842     A.U. after   10 cycles
 E2(B2PLYPD3) =    -0.1667472722D+00 E(B2PLYPD3) =    -0.11783401111433D+03
 SCF Done:  E(UB2PLYPD3) =  -117.667272786     A.U. after    8 cycles
 E2(B2PLYPD3) =    -0.1667469071D+00 E(B2PLYPD3) =    -0.11783401969292D+03
 SCF Done:  E(UB2PLYPD3) =  -117.668053419     A.U. after    9 cycles
 E2(B2PLYPD3) =    -0.1667291448D+00 E(B2PLYPD3) =    -0.11783478256361D+03
 SCF Done:  E(UB2PLYPD3) =  -117.668067685     A.U. after    8 cycles
 E2(B2PLYPD3) =    -0.1667255419D+00 E(B2PLYPD3) =    -0.11783479322661D+03
 SCF Done:  E(UB2PLYPD3) =  -117.668594808     A.U. after    9 cycles
 E2(B2PLYPD3) =    -0.1667130865D+00 E(B2PLYPD3) =    -0.11783530789444D+03
 SCF Done:  E(UB2PLYPD3) =  -117.668621335     A.U. after    8 cycles
 E2(B2PLYPD3) =    -0.1667084614D+00 E(B2PLYPD3) =    -0.11783532979613D+03
    -- Stationary point found.
 SCF Done:  E(UB2PLYPD3) =  -117.668787307     A.U. after    9 cycles
 E2(B2PLYPD3) =    -0.1667045854D+00 E(B2PLYPD3) =    -0.11783549189229D+03
 SCF Done:  E(UB2PLYPD3) =  -117.668820836     A.U. after    8 cycles
 E2(B2PLYPD3) =    -0.1667016261D+00 E(B2PLYPD3) =    -0.11783552246258D+03
 Optimization completed.
    -- Stationary point found.

                          Input orientation:
 ---------------------------------------------------------------------
 Center     Atomic      Atomic             Coordinates (Angstroms)
 Number     Number       Type             X           Y           Z
 ---------------------------------------------------------------------
      1          6           0        1.141326    0.507604   -0.293520
      2          6           0        0.273684   -0.302274    0.304711
      3          6           0       -1.201994   -0.307377    0.058352
      4          1           0       -1.481740    0.443530   -0.678415
      5          1           0        0.643217   -1.020164    1.028617
      6          1           0        0.817770    1.239220   -1.022144
      7          1           0       -1.753241   -0.107046    0.978361
      8          1           0        2.197988    0.464420   -0.074401
      9          1           0       -1.534717   -1.281853   -0.302406
 ---------------------------------------------------------------------

 Alpha  occ. eigenvalues --  -10.61840 -10.60804 -10.60186  -0.90381  -0.78992
 Alpha  occ. eigenvalues --   -0.64017  -0.54078  -0.49028  -0.47916  -0.43646
 Alpha  occ. eigenvalues --   -0.40760  -0.30219
 Alpha virt. eigenvalues --    0.07462   0.08821   0.11728   0.12380   0.15669
 Alpha virt. eigenvalues --    0.16179   0.18227   0.23911   0.30415   0.30867
 Alpha virt. eigenvalues --    0.32427   0.36247   0.38027   0.39215   0.42401

  Beta  occ. eigenvalues --  -10.61840 -10.60804 -10.60186  -0.90381  -0.78992
  Beta  occ. eigenvalues --   -0.64017  -0.54078  -0.49028  -0.47916  -0.43646
  Beta  occ. eigenvalues --   -0.40760  -0.30219
  Beta virt. eigenvalues --    0.07462   0.08821   0.11728   0.12380   0.15669
  Beta virt. eigenvalues --    0.16179   0.18227   0.23911   0.30415   0.30867
  Beta virt. eigenvalues --    0.32427   0.36247   0.38027   0.39215   0.42401

 Mulliken charges and spin densities:
               1          2
     1  C   -0.312003  -0.000000
     2  C   -0.087469  -0.000000
     3  C   -0.264055   0.000000
     4  H    0.095587   0.000000
     5  H    0.129981   0.000000
     6  H    0.118106  -0.000000
     7  H    0.098040  -0.000000
     8  H    0.123757   0.000000
     9  H    0.098057  -0.000000
 Sum of Mulliken charges =  -0.00000   0.00000

 Dipole moment (field-independent basis, Debye):
    X=             -0.3382    Y=             -0.1719    Z=              0.1002  Tot=              0.3924
 Quadrupole moment (field-independent basis, Debye-Ang):
   XX=            -19.4896   YY=            -20.2996   ZZ=            -20.5606
   XY=              0.2460   XZ=              0.1981   YZ=             -1.4754

 Normal termination of Gaussian 16 at Sat Jun  1 01:29:41 2019.
