 Gaussian 16, Revision B.01,
 Gaussian 16:  ES64L-G16RevB.01 20-Dec-2017

 -----------------------------------------------
 # opt=maxcyc=500 freq=noraman uB2PLYPD3/cc-pvtz
 -----------------------------------------------

 -------------------
 Title Card Required
 -------------------
 Symbolic Z-matrix:
 Charge =  0 Multiplicity = 2

 SCF Done:  E(UB2PLYPD3) =  -116.989890651     A.U. after   19 cycles
 E2(B2PLYPD3) =    -0.1547624347D+00 E(B2PLYPD3) =    -0.11714465308559D+03
 SCF Done:  E(UB2PLYPD3) =  -116.994191732     A.U. after   14 cycles
 E2(B2PLYPD3) =    -0.1545763420D+00 E(B2PLYPD3) =    -0.11714876807360D+03
 SCF Done:  E(UB2PLYPD3) =  -116.994719048     A.U. after   14 cycles
 E2(B2PLYPD3) =    -0.1545207823D+00 E(B2PLYPD3) =    -0.11714923983053D+03
 SCF Done:  E(UB2PLYPD3) =  -116.994718400     A.U. after   13 cycles
 E2(B2PLYPD3) =    -0.1545380685D+00 E(B2PLYPD3) =    -0.11714925646874D+03
 SCF Done:  E(UB2PLYPD3) =  -116.994723642     A.U. after   11 cycles
 E2(B2PLYPD3) =    -0.1545354201D+00 E(B2PLYPD3) =    -0.11714925906161D+03
 Optimization completed.
    -- Stationary point found.
 Normal termination of Gaussian 16 at Fri May 31 22:30:13 2019.

 ----------------------------------------------------------------------
 #N Geom=AllCheck Guess=TCheck SCRF=Check GenChk UB2PLYPD3(FC)/CC-pVTZ
 Freq
 ----------------------------------------------------------------------

 Structure from the checkpoint file:  "/localscratch/339542/Gau-47484.chk"
 -------------------
 Title Card Required
 -------------------
 Charge =  0 Multiplicity = 2

                         Standard orientation:
 ---------------------------------------------------------------------
 Center     Atomic      Atomic             Coordinates (Angstroms)
 Number     Number       Type             X           Y           Z
 ---------------------------------------------------------------------
      1          6           0        1.358192   -0.155745    0.000013
      2          6           0        0.211828    0.470231   -0.000030
      3          6           0       -1.142865   -0.198417    0.000003
      4          1           0       -1.050067   -1.281694   -0.000213
      5          1           0        0.204893    1.556855    0.000055
      6          1           0        1.710371   -1.173690   -0.000013
      7          1           0       -1.714166    0.101230   -0.878922
      8          1           0       -1.713964    0.100888    0.879178
 ---------------------------------------------------------------------

 SCF Done:  E(UB2PLYPD3) =  -116.994723642     A.U. after    1 cycles
 E2(B2PLYPD3) =    -0.1545354222D+00 E(B2PLYPD3) =    -0.11714925906377D+03
 E2(B2PLYPD3) =    -0.1545354222D+00 E(B2PLYPD3) =    -0.11714925906377D+03

 The electronic state is 2-A.
 Alpha  occ. eigenvalues --  -10.63108 -10.62219 -10.61710  -0.91165  -0.79466
 Alpha  occ. eigenvalues --   -0.64448  -0.52700  -0.49713  -0.48424  -0.44037
 Alpha  occ. eigenvalues --   -0.31794  -0.29834
 Alpha virt. eigenvalues --    0.07552   0.08877   0.11270   0.13477   0.15355
 Alpha virt. eigenvalues --    0.16474   0.22691   0.29281   0.30387   0.33439
 Alpha virt. eigenvalues --    0.35713   0.37654   0.38006   0.41464   0.47746

  Beta  occ. eigenvalues --  -10.62566 -10.61479 -10.61055  -0.89839  -0.77105
  Beta  occ. eigenvalues --   -0.62400  -0.51460  -0.48585  -0.47555  -0.43321
  Beta  occ. eigenvalues --   -0.30575
  Beta virt. eigenvalues --    0.00146   0.08634   0.09205   0.11693   0.13761
  Beta virt. eigenvalues --    0.15394   0.16699   0.23066   0.29764   0.30719
  Beta virt. eigenvalues --    0.35754   0.36695   0.38008   0.38522   0.43225

 Mulliken charges and spin densities:
               1          2
     1  C   -0.237995   1.098569
     2  C   -0.101519  -0.220465
     3  C   -0.261263   0.076061
     4  H    0.098747  -0.003417
     5  H    0.143867   0.038449
     6  H    0.154913   0.017409
     7  H    0.101623  -0.003300
     8  H    0.101627  -0.003307
 Sum of Mulliken charges =  -0.00000   1.00000

 Dipole moment (field-independent basis, Debye):
    X=             -0.9159    Y=             -0.3637    Z=              0.0001  Tot=              0.9855
 Quadrupole moment (field-independent basis, Debye-Ang):
   XX=            -20.2964   YY=            -17.9341   ZZ=            -21.0772
   XY=             -1.4929   XZ=             -0.0000   YZ=              0.0001

  Exact polarizability:  45.781  -4.715  34.138   0.000   0.000  25.675
 Approx polarizability:  47.899  -7.340  38.057   0.001  -0.000  30.107

                      1                      2                      3
                      A                      A                      A
 Frequencies --    198.4657               384.9126               652.5457
 Red. masses --      1.1618                 1.9833                 1.4938
 Frc consts  --      0.0270                 0.1731                 0.3748
 IR Inten    --      0.5240                 1.0341                 3.5898

                      4                      5                      6
                      A                      A                      A
 Frequencies --    849.8613               859.5148               931.3396
 Red. masses --      1.2904                 1.0727                 2.3731
 Frc consts  --      0.5491                 0.4669                 1.2128
 IR Inten    --     38.0006                66.8221                 1.3228

                      7                      8                      9
                      A                      A                      A
 Frequencies --   1064.5310              1103.1951              1286.8683
 Red. masses --      1.4728                 1.9546                 1.1587
 Frc consts  --      0.9833                 1.4016                 1.1305
 IR Inten    --      3.2460                 2.1891                 0.0614

                     10                     11                     12
                      A                      A                      A
 Frequencies --   1407.4792              1495.9353              1499.0585
 Red. masses --      1.2180                 1.0450                 1.0611
 Frc consts  --      1.4216                 1.3778                 1.4049
 IR Inten    --      1.3956                 6.3757                 9.1658

                     13                     14                     15
                      A                      A                      A
 Frequencies --   1696.5768              3047.9333              3107.3388
 Red. masses --      6.0925                 1.0348                 1.1009
 Frc consts  --     10.3322                 5.6642                 6.2630
 IR Inten    --      3.7987                22.4715                16.1691

                     16                     17                     18
                      A                      A                      A
 Frequencies --   3121.3548              3142.9801              3255.5519
 Red. masses --      1.0868                 1.1002                 1.1039
 Frc consts  --      6.2386                 6.4034                 6.8932
 IR Inten    --      1.7340                22.9402                 0.3359

 - Thermochemistry -
 -------------------
 Temperature   298.150 Kelvin.  Pressure   1.00000 Atm.
 Atom     1 has atomic number  6 and mass  12.00000

 Molecular mass:    41.03913 amu.
 Principal axes and moments of inertia in atomic units:
                           1         2         3
     Eigenvalues --    37.35210 177.77706 204.00493
           X            0.99987  -0.01630  -0.00000
           Y            0.01630   0.99987   0.00001
           Z            0.00000  -0.00001   1.00000
 This molecule is an asymmetric top.
 Rotational symmetry number  1.
 Rotational temperatures (Kelvin)      2.31885     0.48721     0.42457
 Rotational constants (GHZ):          48.31699    10.15171     8.84656
 Zero-point vibrational energy     174089.2 (Joules/Mol)
                                   41.60832 (Kcal/Mol)
 Warning -- explicit consideration of   2 degrees of freedom as
           vibrations may cause significant error
 Vibrational temperatures:    285.55   553.80   938.87  1222.76  1236.65
          (Kelvin)           1339.99  1531.62  1587.25  1851.52  2025.05
                             2152.32  2156.81  2441.00  4385.30  4470.77
                             4490.93  4522.05  4684.01

 Zero-point correction=                           0.066307 (Hartree/Particle)
 Thermal correction to Energy=                    0.070421
 Thermal correction to Enthalpy=                  0.071365
 Thermal correction to Gibbs Free Energy=         0.040732
 Sum of electronic and zero-point Energies=           -117.082952
 Sum of electronic and thermal Energies=              -117.078838
 Sum of electronic and thermal Enthalpies=            -117.077894
 Sum of electronic and thermal Free Energies=         -117.108527

                     E (Thermal)             CV                S
                      KCal/Mol        Cal/Mol-Kelvin    Cal/Mol-Kelvin
 Total                   44.190             12.853             64.473
 Electronic               0.000              0.000              1.377
 Translational            0.889              2.981             37.063
 Rotational               0.889              2.981             21.832
 Vibrational             42.412              6.891              4.201
 Vibration     1          0.637              1.842              2.147
 Vibration     2          0.754              1.502              1.020

 Optimization completed.
    -- Stationary point found.
 Normal termination of Gaussian 16 at Fri May 31 22:34:02 2019.
