 Gaussian 16, Revision B.01,
 Gaussian 16:  ES64L-G16RevB.01 20-Dec-2017

 -----------------------------------------------
 # opt=maxcyc=500 freq=noraman uB2PLYPD3/cc-pvtz
 -----------------------------------------------

 -------------------
 Title Card Required
 -------------------
 Symbolic Z-matrix:
 Charge =  0 Multiplicity = 2

 SCF Done:  E(UB2PLYPD3) =  -117.007562252     A.U. after   18 cycles
 E2(B2PLYPD3) =    -0.1538266904D+00 E(B2PLYPD3) =    -0.11716138894281D+03
 SCF Done:  E(UB2PLYPD3) =  -117.023234017     A.U. after   17 cycles
 E2(B2PLYPD3) =    -0.1533456395D+00 E(B2PLYPD3) =    -0.11717657965632D+03
 SCF Done:  E(UB2PLYPD3) =  -117.031056414     A.U. after   17 cycles
 E2(B2PLYPD3) =    -0.1528315573D+00 E(B2PLYPD3) =    -0.11718388797170D+03
 SCF Done:  E(UB2PLYPD3) =  -117.033810502     A.U. after   15 cycles
 E2(B2PLYPD3) =    -0.1529815814D+00 E(B2PLYPD3) =    -0.11718679208367D+03
 SCF Done:  E(UB2PLYPD3) =  -117.035210322     A.U. after   14 cycles
 E2(B2PLYPD3) =    -0.1529459826D+00 E(B2PLYPD3) =    -0.11718815630511D+03
 SCF Done:  E(UB2PLYPD3) =  -117.035433088     A.U. after   13 cycles
 E2(B2PLYPD3) =    -0.1528800689D+00 E(B2PLYPD3) =    -0.11718831315647D+03
 SCF Done:  E(UB2PLYPD3) =  -117.035517576     A.U. after   12 cycles
 E2(B2PLYPD3) =    -0.1529024392D+00 E(B2PLYPD3) =    -0.11718842001520D+03
 SCF Done:  E(UB2PLYPD3) =  -117.035522197     A.U. after   10 cycles
 E2(B2PLYPD3) =    -0.1529023710D+00 E(B2PLYPD3) =    -0.11718842456799D+03
 Optimization completed.
    -- Stationary point found.
 Normal termination of Gaussian 16 at Fri May 31 22:43:08 2019.

 ----------------------------------------------------------------------
 #N Geom=AllCheck Guess=TCheck SCRF=Check GenChk UB2PLYPD3(FC)/CC-pVTZ
 Freq
 ----------------------------------------------------------------------

 Structure from the checkpoint file:  "/localscratch/339542/Gau-84136.chk"
 -------------------
 Title Card Required
 -------------------
 Charge =  0 Multiplicity = 2

                         Standard orientation:
 ---------------------------------------------------------------------
 Center     Atomic      Atomic             Coordinates (Angstroms)
 Number     Number       Type             X           Y           Z
 ---------------------------------------------------------------------
      1          6           0        1.221035   -0.196211    0.000010
      2          6           0        0.000222    0.444106   -0.000059
      3          6           0       -1.221232   -0.196291   -0.000072
      4          1           0       -1.280725   -1.275231    0.000722
      5          1           0        1.280456   -1.275263   -0.000947
      6          1           0       -2.146747    0.356843    0.000347
      7          1           0        2.147069    0.356137    0.001062
      8          1           0       -0.000206    1.527888   -0.000462
 ---------------------------------------------------------------------

 SCF Done:  E(UB2PLYPD3) =  -117.035522197     A.U. after    1 cycles
 E2(B2PLYPD3) =    -0.1529023705D+00 E(B2PLYPD3) =    -0.11718842456749D+03
 E2(B2PLYPD3) =    -0.1529023705D+00 E(B2PLYPD3) =    -0.11718842456749D+03

 The electronic state is 2-A.
 Alpha  occ. eigenvalues --  -10.61956 -10.61936 -10.61731  -0.91530  -0.79189
 Alpha  occ. eigenvalues --   -0.64401  -0.55511  -0.50859  -0.45305  -0.42484
 Alpha  occ. eigenvalues --   -0.38352  -0.25349
 Alpha virt. eigenvalues --    0.09516   0.09594   0.11416   0.12242   0.16522
 Alpha virt. eigenvalues --    0.17571   0.24693   0.31083   0.34111   0.35699
 Alpha virt. eigenvalues --    0.36019   0.38186   0.39315   0.42874   0.46014

  Beta  occ. eigenvalues --  -10.62386 -10.60746 -10.60743  -0.90234  -0.75239
  Beta  occ. eigenvalues --   -0.63610  -0.54966  -0.50185  -0.44618  -0.42208
  Beta  occ. eigenvalues --   -0.33733
  Beta virt. eigenvalues --   -0.00959   0.09751   0.11558   0.12139   0.12643
  Beta virt. eigenvalues --    0.16673   0.17822   0.24619   0.31214   0.35780
  Beta virt. eigenvalues --    0.36547   0.36734   0.38753   0.43820   0.45537

 Mulliken charges and spin densities:
               1          2
     1  C   -0.284740   0.741584
     2  C   -0.056611  -0.372737
     3  C   -0.284720   0.742990
     4  H    0.118412  -0.028467
     5  H    0.118336  -0.028427
     6  H    0.126065  -0.034762
     7  H    0.126044  -0.034713
     8  H    0.137215   0.014532
 Sum of Mulliken charges =  -0.00000   1.00000

 Dipole moment (field-independent basis, Debye):
    X=             -0.0000    Y=              0.0564    Z=              0.0006  Tot=              0.0564
 Quadrupole moment (field-independent basis, Debye-Ang):
   XX=            -18.0285   YY=            -17.7450   ZZ=            -22.2489
   XY=             -0.0016   XZ=             -0.0004   YZ=              0.0003

  Exact polarizability:  54.721  -0.006  33.872   0.003   0.001  21.527
 Approx polarizability:  53.237  -0.010  37.171   0.004   0.001  26.126

                      1                      2                      3
                      A                      A                      A
 Frequencies --    431.1187               539.9152               564.9022
 Red. masses --      1.8838                 1.3401                 1.0194
 Frc consts  --      0.2063                 0.2302                 0.1917
 IR Inten    --      0.1438                15.3270                 0.0037

                      4                      5                      6
                      A                      A                      A
 Frequencies --    804.5165               827.6364               944.0786
 Red. masses --      1.3042                 1.4970                 1.1600
 Frc consts  --      0.4974                 0.6041                 0.6092
 IR Inten    --      0.0598                73.7066                 0.0068

                      7                      8                      9
                      A                      A                      A
 Frequencies --   1029.3392              1050.0822              1191.3594
 Red. masses --      1.1529                 1.8736                 2.0122
 Frc consts  --      0.7197                 1.2172                 1.6827
 IR Inten    --     20.8048                 0.0130                 0.1770

                     10                     11                     12
                      A                      A                      A
 Frequencies --   1288.2008              1433.6828              1520.5572
 Red. masses --      2.2080                 1.3243                 1.4693
 Frc consts  --      2.1588                 1.6038                 2.0016
 IR Inten    --      1.1137                 5.7194                 1.0698

                     13                     14                     15
                      A                      A                      A
 Frequencies --   1536.6065              3163.9572              3164.1923
 Red. masses --      1.3546                 1.0747                 1.0572
 Frc consts  --      1.8845                 6.3388                 6.2362
 IR Inten    --      3.0556                12.8096                 8.2984

                     16                     17                     18
                      A                      A                      A
 Frequencies --   3170.9877              3266.6617              3269.3893
 Red. masses --      1.0643                 1.1168                 1.1167
 Frc consts  --      6.3055                 7.0219                 7.0326
 IR Inten    --      1.6532                 4.4590                13.8984

 - Thermochemistry -
 -------------------
 Temperature   298.150 Kelvin.  Pressure   1.00000 Atm.
 Atom     1 has atomic number  6 and mass  12.00000

 Molecular mass:    41.03913 amu.
 Principal axes and moments of inertia in atomic units:
                           1         2         3
     Eigenvalues --    32.76681 172.78261 205.54940
           X            1.00000  -0.00004  -0.00001
           Y            0.00004   1.00000   0.00001
           Z            0.00001  -0.00001   1.00000
 This molecule is an asymmetric top.
 Rotational symmetry number  1.
 Rotational temperatures (Kelvin)      2.64334     0.50129     0.42138
 Rotational constants (GHZ):          55.07834    10.44516     8.78009
 Zero-point vibrational energy     174637.9 (Joules/Mol)
                                   41.73947 (Kcal/Mol)
 Warning -- explicit consideration of   3 degrees of freedom as
           vibrations may cause significant error
 Vibrational temperatures:    620.28   776.82   812.77  1157.52  1190.78
          (Kelvin)           1358.32  1480.99  1510.83  1714.10  1853.43
                             2062.75  2187.74  2210.83  4552.23  4552.57
                             4562.34  4700.00  4703.92

 Zero-point correction=                           0.066516 (Hartree/Particle)
 Thermal correction to Energy=                    0.070307
 Thermal correction to Enthalpy=                  0.071251
 Thermal correction to Gibbs Free Energy=         0.041398
 Sum of electronic and zero-point Energies=           -117.121908
 Sum of electronic and thermal Energies=              -117.118118
 Sum of electronic and thermal Enthalpies=            -117.117174
 Sum of electronic and thermal Free Energies=         -117.147026

                     E (Thermal)             CV                S
                      KCal/Mol        Cal/Mol-Kelvin    Cal/Mol-Kelvin
 Total                   44.118             12.592             62.830
 Electronic               0.000              0.000              1.377
 Translational            0.889              2.981             37.063
 Rotational               0.889              2.981             21.681
 Vibrational             42.341              6.630              2.709
 Vibration     1          0.792              1.402              0.855
 Vibration     2          0.895              1.162              0.565
 Vibration     3          0.921              1.107              0.514

                           ! Non-Optimized Parameters !
 Normal termination of Gaussian 16 at Fri May 31 22:46:45 2019.
