 Gaussian 16, Revision B.01,
 Gaussian 16:  ES64L-G16RevB.01 20-Dec-2017

 -----------------------------------------------
 # opt=maxcyc=500 freq=noraman uB2PLYPD3/cc-pvtz
 -----------------------------------------------

 -------------------
 Title Card Required
 -------------------
 Symbolic Z-matrix:
 Charge =  0 Multiplicity = 2

 SCF Done:  E(UB2PLYPD3) =  -116.989561142     A.U. after   19 cycles
 E2(B2PLYPD3) =    -0.1545923855D+00 E(B2PLYPD3) =    -0.11714415352712D+03
 SCF Done:  E(UB2PLYPD3) =  -116.994820972     A.U. after   15 cycles
 E2(B2PLYPD3) =    -0.1545650835D+00 E(B2PLYPD3) =    -0.11714938605522D+03
 SCF Done:  E(UB2PLYPD3) =  -116.995292348     A.U. after   13 cycles
 E2(B2PLYPD3) =    -0.1545289469D+00 E(B2PLYPD3) =    -0.11714982129534D+03
 SCF Done:  E(UB2PLYPD3) =  -116.995295355     A.U. after   12 cycles
 E2(B2PLYPD3) =    -0.1545505628D+00 E(B2PLYPD3) =    -0.11714984591758D+03
 SCF Done:  E(UB2PLYPD3) =  -116.995301329     A.U. after    9 cycles
 E2(B2PLYPD3) =    -0.1545476689D+00 E(B2PLYPD3) =    -0.11714984899787D+03
 Optimization completed.
    -- Stationary point found.
 Normal termination of Gaussian 16 at Fri May 31 22:24:27 2019.

 ----------------------------------------------------------------------
 #N Geom=AllCheck Guess=TCheck SCRF=Check GenChk UB2PLYPD3(FC)/CC-pVTZ
 Freq
 ----------------------------------------------------------------------

 Structure from the checkpoint file:  "/localscratch/339542/Gau-79499.chk"
 -------------------
 Title Card Required
 -------------------
 Charge =  0 Multiplicity = 2

                         Standard orientation:
 ---------------------------------------------------------------------
 Center     Atomic      Atomic             Coordinates (Angstroms)
 Number     Number       Type             X           Y           Z
 ---------------------------------------------------------------------
      1          6           0        1.308832   -0.318120   -0.000002
      2          6           0        0.211346    0.389773   -0.000024
      3          6           0       -1.189516   -0.152957    0.000002
      4          1           0       -1.187612   -1.239652   -0.000396
      5          1           0        0.303502    1.478429    0.000044
      6          1           0       -1.735022    0.195092   -0.877514
      7          1           0       -1.734730    0.194426    0.877969
      8          1           0        2.369891   -0.140471    0.000046
 ---------------------------------------------------------------------

 SCF Done:  E(UB2PLYPD3) =  -116.995301329     A.U. after    1 cycles
 E2(B2PLYPD3) =    -0.1545476785D+00 E(B2PLYPD3) =    -0.11714984900744D+03
 E2(B2PLYPD3) =    -0.1545476785D+00 E(B2PLYPD3) =    -0.11714984900744D+03

 The electronic state is 2-A.
 Alpha  occ. eigenvalues --  -10.63135 -10.62303 -10.61306  -0.91093  -0.79637
 Alpha  occ. eigenvalues --   -0.63276  -0.55405  -0.48180  -0.47224  -0.44423
 Alpha  occ. eigenvalues --   -0.31790  -0.29822
 Alpha virt. eigenvalues --    0.07555   0.09108   0.11645   0.13498   0.15531
 Alpha virt. eigenvalues --    0.16573   0.22691   0.28907   0.30784   0.30845
 Alpha virt. eigenvalues --    0.34556   0.37433   0.38812   0.43970   0.46741

  Beta  occ. eigenvalues --  -10.62645 -10.61169 -10.61113  -0.89819  -0.77521
  Beta  occ. eigenvalues --   -0.60679  -0.54080  -0.48399  -0.45717  -0.43674
  Beta  occ. eigenvalues --   -0.30596
  Beta virt. eigenvalues --   -0.00153   0.08657   0.09680   0.12002   0.13871
  Beta virt. eigenvalues --    0.15556   0.16818   0.23018   0.29493   0.30976
  Beta virt. eigenvalues --    0.32986   0.35278   0.37839   0.39283   0.45625

 Mulliken charges and spin densities:
               1          2
     1  C   -0.242010   1.079828
     2  C   -0.094011  -0.209237
     3  C   -0.259040   0.040446
     4  H    0.104675   0.004711
     5  H    0.133668   0.075407
     6  H    0.100062  -0.004613
     7  H    0.100068  -0.004619
     8  H    0.156587   0.018078
 Sum of Mulliken charges =   0.00000   1.00000

 Dipole moment (field-independent basis, Debye):
    X=             -0.2770    Y=              0.6518    Z=              0.0001  Tot=              0.7082
 Quadrupole moment (field-independent basis, Debye-Ang):
   XX=            -17.5349   YY=            -19.5461   ZZ=            -21.1003
   XY=              0.4481   XZ=              0.0001   YZ=              0.0001

  Exact polarizability:  47.163  -4.411  33.284  -0.000   0.000  25.570
 Approx polarizability:  48.224  -7.304  37.870   0.000  -0.000  29.989

                      1                      2                      3
                      A                      A                      A
 Frequencies --    198.3213               410.2828               619.0483
 Red. masses --      1.2491                 2.2540                 1.1208
 Frc consts  --      0.0289                 0.2235                 0.2531
 IR Inten    --      0.0203                 8.2733                61.0528

                      4                      5                      6
                      A                      A                      A
 Frequencies --    804.3690               822.5997               941.3121
 Red. masses --      1.3064                 1.2864                 1.8016
 Frc consts  --      0.4980                 0.5129                 0.9405
 IR Inten    --     17.3275                 1.9688                 1.9755

                      7                      8                      9
                      A                      A                      A
 Frequencies --   1073.9791              1122.3128              1282.2277
 Red. masses --      1.4769                 2.0608                 1.2167
 Frc consts  --      1.0037                 1.5294                 1.1786
 IR Inten    --      2.4063                 5.5299                 1.3589

                     10                     11                     12
                      A                      A                      A
 Frequencies --   1416.1603              1498.6693              1499.0547
 Red. masses --      1.2370                 1.0434                 1.0607
 Frc consts  --      1.4616                 1.3808                 1.4044
 IR Inten    --      1.6286                 6.5363                 9.4390

                     13                     14                     15
                      A                      A                      A
 Frequencies --   1706.6711              3046.3155              3052.0965
 Red. masses --      6.1786                 1.0668                 1.0496
 Frc consts  --     10.6032                 5.8326                 5.7607
 IR Inten    --      2.8046                20.0726                15.2826

                     16                     17                     18
                      A                      A                      A
 Frequencies --   3105.5819              3146.3733              3270.1382
 Red. masses --      1.1004                 1.1014                 1.1049
 Frc consts  --      6.2528                 6.4243                 6.9612
 IR Inten    --     17.5961                15.1660                 0.3446

 - Thermochemistry -
 -------------------
 Temperature   298.150 Kelvin.  Pressure   1.00000 Atm.
 Atom     1 has atomic number  6 and mass  12.00000

 Molecular mass:    41.03913 amu.
 Principal axes and moments of inertia in atomic units:
                           1         2         3
     Eigenvalues --    31.05311 188.51407 208.47604
           X            0.99980   0.02000   0.00000
           Y           -0.02000   0.99980   0.00001
           Z           -0.00000  -0.00001   1.00000
 This molecule is an asymmetric top.
 Rotational symmetry number  1.
 Rotational temperatures (Kelvin)      2.78922     0.45946     0.41546
 Rotational constants (GHZ):          58.11790     9.57351     8.65683
 Zero-point vibrational energy     173551.3 (Joules/Mol)
                                   41.47976 (Kcal/Mol)
 Warning -- explicit consideration of   3 degrees of freedom as
           vibrations may cause significant error
 Vibrational temperatures:    285.34   590.31   890.67  1157.31  1183.54
          (Kelvin)           1354.34  1545.22  1614.76  1844.84  2037.54
                             2156.25  2156.81  2455.52  4382.97  4391.29
                             4468.24  4526.93  4705.00

 Zero-point correction=                           0.066102 (Hartree/Particle)
 Thermal correction to Energy=                    0.070224
 Thermal correction to Enthalpy=                  0.071168
 Thermal correction to Gibbs Free Energy=         0.040582
 Sum of electronic and zero-point Energies=           -117.083747
 Sum of electronic and thermal Energies=              -117.079625
 Sum of electronic and thermal Enthalpies=            -117.078681
 Sum of electronic and thermal Free Energies=         -117.109267

                     E (Thermal)             CV                S
                      KCal/Mol        Cal/Mol-Kelvin    Cal/Mol-Kelvin
 Total                   44.066             12.956             64.374
 Electronic               0.000              0.000              1.377
 Translational            0.889              2.981             37.063
 Rotational               0.889              2.981             21.728
 Vibrational             42.289              6.994              4.205
 Vibration     1          0.637              1.842              2.149
 Vibration     2          0.774              1.448              0.926
 Vibration     3          0.979              0.992              0.418

 Optimization completed.
    -- Stationary point found.
 Normal termination of Gaussian 16 at Fri May 31 22:28:00 2019.
