 Gaussian 16, Revision B.01,
 Gaussian 16:  ES64L-G16RevB.01 20-Dec-2017

 -----------------------------------------------
 # opt=maxcyc=500 freq=noraman uB2PLYPD3/cc-pvtz
 -----------------------------------------------

 -------------------
 Title Card Required
 -------------------
 Symbolic Z-matrix:
 Charge =  0 Multiplicity = 1

 SCF Done:  E(UB2PLYPD3) =  -117.668710544     A.U. after   11 cycles
 E2(B2PLYPD3) =    -0.1667679103D+00 E(B2PLYPD3) =    -0.11783547845395D+03
 SCF Done:  E(UB2PLYPD3) =  -117.668821935     A.U. after    7 cycles
 E2(B2PLYPD3) =    -0.1666993903D+00 E(B2PLYPD3) =    -0.11783552132490D+03
 SCF Done:  E(UB2PLYPD3) =  -117.668821420     A.U. after    6 cycles
 E2(B2PLYPD3) =    -0.1667004416D+00 E(B2PLYPD3) =    -0.11783552186141D+03
 Optimization completed.
    -- Stationary point found.
 Normal termination of Gaussian 16 at Fri May 31 22:17:25 2019.

 ----------------------------------------------------------------------
 #N Geom=AllCheck Guess=TCheck SCRF=Check GenChk UB2PLYPD3(FC)/CC-pVTZ
 Freq
 ----------------------------------------------------------------------

 Structure from the checkpoint file:  "/localscratch/339542/Gau-4348.chk"
 -------------------
 Title Card Required
 -------------------
 Charge =  0 Multiplicity = 1

                         Standard orientation:
 ---------------------------------------------------------------------
 Center     Atomic      Atomic             Coordinates (Angstroms)
 Number     Number       Type             X           Y           Z
 ---------------------------------------------------------------------
      1          6           0        1.276073   -0.221555    0.000025
      2          6           0        0.132943    0.456511    0.000008
      3          6           0       -1.228988   -0.162744   -0.000011
      4          1           0       -1.168351   -1.249583   -0.000919
      5          1           0        0.168296    1.540338   -0.000072
      6          1           0        1.288168   -1.303525   -0.000083
      7          1           0       -1.800370    0.149697   -0.875373
      8          1           0        2.231711    0.281567   -0.000046
      9          1           0       -1.799619    0.148235    0.876367
 ---------------------------------------------------------------------

 SCF Done:  E(UB2PLYPD3) =  -117.668821420     A.U. after    1 cycles
 E2(B2PLYPD3) =    -0.1667004416D+00 E(B2PLYPD3) =    -0.11783552186143D+03
 E2(B2PLYPD3) =    -0.1667004416D+00 E(B2PLYPD3) =    -0.11783552186143D+03

 The electronic state is 1-A.
 Alpha  occ. eigenvalues --  -10.61839 -10.60803 -10.60185  -0.90382  -0.78992
 Alpha  occ. eigenvalues --   -0.64017  -0.54079  -0.49027  -0.47919  -0.43649
 Alpha  occ. eigenvalues --   -0.40758  -0.30218
 Alpha virt. eigenvalues --    0.07463   0.08821   0.11730   0.12380   0.15668
 Alpha virt. eigenvalues --    0.16179   0.18227   0.23909   0.30415   0.30863
 Alpha virt. eigenvalues --    0.32427   0.36245   0.38026   0.39218   0.42404

  Beta  occ. eigenvalues --  -10.61839 -10.60803 -10.60185  -0.90382  -0.78992
  Beta  occ. eigenvalues --   -0.64017  -0.54079  -0.49027  -0.47919  -0.43649
  Beta  occ. eigenvalues --   -0.40758  -0.30218
  Beta virt. eigenvalues --    0.07463   0.08821   0.11730   0.12380   0.15668
  Beta virt. eigenvalues --    0.16179   0.18227   0.23909   0.30415   0.30863
  Beta virt. eigenvalues --    0.32427   0.36245   0.38026   0.39218   0.42404

 Mulliken charges and spin densities:
               1          2
     1  C   -0.312039  -0.000000
     2  C   -0.087463   0.000000
     3  C   -0.264018   0.000000
     4  H    0.095584  -0.000000
     5  H    0.129972   0.000000
     6  H    0.118089  -0.000000
     7  H    0.098046  -0.000000
     8  H    0.123769   0.000000
     9  H    0.098060   0.000000
 Sum of Mulliken charges =  -0.00000   0.00000

 Dipole moment (field-independent basis, Debye):
    X=             -0.3845    Y=              0.0784    Z=             -0.0001  Tot=              0.3925
 Quadrupole moment (field-independent basis, Debye-Ang):
   XX=            -19.3792   YY=            -19.0315   ZZ=            -21.9502
   XY=             -0.1742   XZ=             -0.0002   YZ=             -0.0000

  Exact polarizability:  47.778  -3.829  35.648  -0.000   0.000  26.052
 Approx polarizability:  50.107  -6.681  40.695  -0.001   0.000  31.261

                      1                      2                      3
                      A                      A                      A
 Frequencies --    206.0160               426.3959               593.7182
 Red. masses --      1.1608                 1.9510                 1.1957
 Frc consts  --      0.0290                 0.2090                 0.2483
 IR Inten    --      0.3807                 0.9809                11.5654

                      4                      5                      6
                      A                      A                      A
 Frequencies --    934.2448               947.7275               953.1370
 Red. masses --      2.4574                 1.3276                 1.1457
 Frc consts  --      1.2637                 0.7025                 0.6133
 IR Inten    --      2.6413                42.9126                 3.3399

                      7                      8                      9
                      A                      A                      A
 Frequencies --   1034.9069              1079.6152              1200.3032
 Red. masses --      1.0507                 1.5391                 1.7959
 Frc consts  --      0.6630                 1.0570                 1.5244
 IR Inten    --     11.7438                 2.4577                 0.2423

                     10                     11                     12
                      A                      A                      A
 Frequencies --   1335.1223              1418.3799              1462.7723
 Red. masses --      1.2558                 1.2176                 1.2165
 Frc consts  --      1.3189                 1.4432                 1.5336
 IR Inten    --      0.0839                 1.6511                 0.8890

                     13                     14                     15
                      A                      A                      A
 Frequencies --   1493.7978              1507.7853              1711.6509
 Red. masses --      1.0443                 1.0557                 4.2733
 Frc consts  --      1.3729                 1.4141                 7.3765
 IR Inten    --      6.4673                13.8928                12.4637

                     16                     17                     18
                      A                      A                      A
 Frequencies --   3042.6534              3095.1960              3124.3655
 Red. masses --      1.0359                 1.0994                 1.0996
 Frc consts  --      5.6504                 6.2055                 6.3242
 IR Inten    --     22.7293                19.0794                10.4406

                     19                     20                     21
                      A                      A                      A
 Frequencies --   3152.1186              3160.5864              3242.7538
 Red. masses --      1.0626                 1.0883                 1.1156
 Frc consts  --      6.2206                 6.4050                 6.9116
 IR Inten    --     21.9795                 8.7989                16.7688

 - Thermochemistry -
 -------------------
 Temperature   298.150 Kelvin.  Pressure   1.00000 Atm.
 Atom     1 has atomic number  6 and mass  12.00000

 Molecular mass:    42.04695 amu.
 Principal axes and moments of inertia in atomic units:
                           1         2         3
     Eigenvalues --    38.39297 192.92194 220.27100
           X            0.99999   0.00328  -0.00001
           Y           -0.00328   0.99999   0.00000
           Z            0.00001  -0.00000   1.00000
 This molecule is an asymmetric top.
 Rotational symmetry number  1.
 Rotational temperatures (Kelvin)      2.25598     0.44896     0.39322
 Rotational constants (GHZ):          47.00708     9.35477     8.19328
 Zero-point vibrational energy     210083.7 (Joules/Mol)
                                   50.21120 (Kcal/Mol)
 Warning -- explicit consideration of   3 degrees of freedom as
           vibrations may cause significant error
 Vibrational temperatures:    296.41   613.49   854.23  1344.17  1363.57
          (Kelvin)           1371.35  1489.00  1553.33  1726.97  1920.94
                             2040.73  2104.60  2149.24  2169.37  2462.68
                             4377.70  4453.30  4495.27  4535.20  4547.38
                             4665.60

 Zero-point correction=                           0.080017 (Hartree/Particle)
 Thermal correction to Energy=                    0.084095
 Thermal correction to Enthalpy=                  0.085039
 Thermal correction to Gibbs Free Energy=         0.055018
 Sum of electronic and zero-point Energies=           -117.755505
 Sum of electronic and thermal Energies=              -117.751427
 Sum of electronic and thermal Enthalpies=            -117.750482
 Sum of electronic and thermal Free Energies=         -117.780503

                     E (Thermal)             CV                S
                      KCal/Mol        Cal/Mol-Kelvin    Cal/Mol-Kelvin
 Total                   52.771             12.920             63.184
 Electronic               0.000              0.000              0.000
 Translational            0.889              2.981             37.135
 Rotational               0.889              2.981             22.016
 Vibrational             50.993              6.958              4.032
 Vibration     1          0.640              1.831              2.079
 Vibration     2          0.788              1.413              0.871
 Vibration     3          0.951              1.045              0.461

 Optimization completed.
    -- Stationary point found.
 Normal termination of Gaussian 16 at Fri May 31 22:22:13 2019.
