 Gaussian 16, Revision B.01,
 Gaussian 16:  ES64L-G16RevB.01 20-Dec-2017

 -----------------------------------------------
 # opt=maxcyc=500 freq=noraman uB2PLYPD3/cc-pvtz
 -----------------------------------------------

 -------------------
 Title Card Required
 -------------------
 Symbolic Z-matrix:
 Charge =  0 Multiplicity = 2

 SCF Done:  E(UB2PLYPD3) =  -116.995688331     A.U. after   19 cycles
 E2(B2PLYPD3) =    -0.1548473267D+00 E(B2PLYPD3) =    -0.11715053565773D+03
 SCF Done:  E(UB2PLYPD3) =  -117.000701549     A.U. after   14 cycles
 E2(B2PLYPD3) =    -0.1547824274D+00 E(B2PLYPD3) =    -0.11715548397611D+03
 SCF Done:  E(UB2PLYPD3) =  -117.001581150     A.U. after   14 cycles
 E2(B2PLYPD3) =    -0.1547344201D+00 E(B2PLYPD3) =    -0.11715631557030D+03
 SCF Done:  E(UB2PLYPD3) =  -117.001625341     A.U. after   12 cycles
 E2(B2PLYPD3) =    -0.1547554836D+00 E(B2PLYPD3) =    -0.11715638082436D+03
 SCF Done:  E(UB2PLYPD3) =  -117.001636538     A.U. after    8 cycles
 E2(B2PLYPD3) =    -0.1547504673D+00 E(B2PLYPD3) =    -0.11715638700493D+03
 Optimization completed.
    -- Stationary point found.
 Normal termination of Gaussian 16 at Fri May 31 22:36:11 2019.

 ----------------------------------------------------------------------
 #N Geom=AllCheck Guess=TCheck SCRF=Check GenChk UB2PLYPD3(FC)/CC-pVTZ
 Freq
 ----------------------------------------------------------------------

 Structure from the checkpoint file:  "/localscratch/339542/Gau-15735.chk"
 -------------------
 Title Card Required
 -------------------
 Charge =  0 Multiplicity = 2

                         Standard orientation:
 ---------------------------------------------------------------------
 Center     Atomic      Atomic             Coordinates (Angstroms)
 Number     Number       Type             X           Y           Z
 ---------------------------------------------------------------------
      1          6           0       -1.337443    0.099961    0.000008
      2          6           0       -0.125345   -0.387758   -0.000009
      3          6           0        1.266035    0.077627    0.000001
      4          1           0        1.306752    1.173141   -0.000043
      5          1           0       -1.509915    1.176844   -0.000022
      6          1           0        1.800763   -0.280030   -0.879504
      7          1           0        1.800705   -0.279953    0.879573
      8          1           0       -2.217784   -0.528984   -0.000002
 ---------------------------------------------------------------------

 SCF Done:  E(UB2PLYPD3) =  -117.001636538     A.U. after    1 cycles
 E2(B2PLYPD3) =    -0.1547504587D+00 E(B2PLYPD3) =    -0.11715638699633D+03
 E2(B2PLYPD3) =    -0.1547504587D+00 E(B2PLYPD3) =    -0.11715638699633D+03

 The electronic state is 2-A.
 Alpha  occ. eigenvalues --  -10.63877 -10.62500 -10.60493  -0.91363  -0.80856
 Alpha  occ. eigenvalues --   -0.61722  -0.53067  -0.50538  -0.49573  -0.46168
 Alpha  occ. eigenvalues --   -0.31180  -0.28094
 Alpha virt. eigenvalues --    0.07690   0.08634   0.12222   0.14164   0.15575
 Alpha virt. eigenvalues --    0.16833   0.20441   0.29333   0.30383   0.31593
 Alpha virt. eigenvalues --    0.37113   0.38303   0.38382   0.42675   0.45231

  Beta  occ. eigenvalues --  -10.62507 -10.61873 -10.60792  -0.88686  -0.80563
  Beta  occ. eigenvalues --   -0.58937  -0.50174  -0.49028  -0.49020  -0.45327
  Beta  occ. eigenvalues --   -0.30662
  Beta virt. eigenvalues --    0.00761   0.09024   0.09075   0.12327   0.14621
  Beta virt. eigenvalues --    0.15814   0.17178   0.21081   0.29545   0.30476
  Beta virt. eigenvalues --    0.32054   0.38251   0.38606   0.42022   0.44097

 Mulliken charges and spin densities:
               1          2
     1  C   -0.338381  -0.202094
     2  C    0.017387   1.037279
     3  C   -0.262357  -0.035624
     4  H    0.099613   0.065111
     5  H    0.122120   0.083858
     6  H    0.111977   0.007582
     7  H    0.111977   0.007582
     8  H    0.137664   0.036306
 Sum of Mulliken charges =  -0.00000   1.00000

 Dipole moment (field-independent basis, Debye):
    X=              0.6658    Y=              0.5835    Z=             -0.0000  Tot=              0.8853
 Quadrupole moment (field-independent basis, Debye-Ang):
   XX=            -17.5338   YY=            -19.6250   ZZ=            -20.9935
   XY=             -0.1994   XZ=              0.0000   YZ=             -0.0000

  Exact polarizability:  50.150  -2.604  32.419  -0.000   0.000  25.513
 Approx polarizability:  51.296  -4.928  36.373  -0.000   0.000  29.906

                      1                      2                      3
                      A                      A                      A
 Frequencies --    189.6747               320.1243               488.9493
 Red. masses --      1.3063                 2.0708                 1.2185
 Frc consts  --      0.0277                 0.1250                 0.1716
 IR Inten    --      2.7655                 3.8146                 5.0000

                      4                      5                      6
                      A                      A                      A
 Frequencies --    896.1224               904.8510               946.2834
 Red. masses --      1.3225                 1.6867                 1.8152
 Frc consts  --      0.6257                 0.8137                 0.9577
 IR Inten    --     47.4825                 0.5695                 4.2163

                      7                      8                      9
                      A                      A                      A
 Frequencies --   1061.8300              1114.7104              1401.3326
 Red. masses --      1.4194                 1.8796                 1.1742
 Frc consts  --      0.9429                 1.3760                 1.3585
 IR Inten    --      0.0000                 1.8489                 1.0441

                     10                     11                     12
                      A                      A                      A
 Frequencies --   1431.1652              1470.6759              1488.2006
 Red. masses --      1.1526                 1.0402                 1.0463
 Frc consts  --      1.3909                 1.3256                 1.3653
 IR Inten    --      3.4040                 7.4866                12.2035

                     13                     14                     15
                      A                      A                      A
 Frequencies --   1761.3714              2999.1436              3061.4053
 Red. masses --      8.3626                 1.0488                 1.0662
 Frc consts  --     15.2861                 5.5584                 5.8874
 IR Inten    --     20.8441                20.2772                10.8804

                     16                     17                     18
                      A                      A                      A
 Frequencies --   3087.3774              3114.1752              3188.3383
 Red. masses --      1.0819                 1.1005                 1.1001
 Frc consts  --      6.0761                 6.2883                 6.5891
 IR Inten    --     12.6593                 8.6601                 3.9694

 - Thermochemistry -
 -------------------
 Temperature   298.150 Kelvin.  Pressure   1.00000 Atm.
 Atom     1 has atomic number  6 and mass  12.00000

 Molecular mass:    41.03913 amu.
 Principal axes and moments of inertia in atomic units:
                           1         2         3
     Eigenvalues --    24.07060 206.85522 219.78922
           X            1.00000  -0.00084   0.00000
           Y            0.00084   1.00000  -0.00001
           Z           -0.00000   0.00001   1.00000
 This molecule is an asymmetric top.
 Rotational symmetry number  1.
 Rotational temperatures (Kelvin)      3.59833     0.41872     0.39408
 Rotational constants (GHZ):          74.97699     8.72466     8.21124
 Zero-point vibrational energy     173014.3 (Joules/Mol)
                                   41.35141 (Kcal/Mol)
 Warning -- explicit consideration of   3 degrees of freedom as
           vibrations may cause significant error
 Vibrational temperatures:    272.90   460.59   703.49  1289.32  1301.88
          (Kelvin)           1361.49  1527.74  1603.82  2016.21  2059.13
                             2115.97  2141.19  2534.22  4315.10  4404.68
                             4442.05  4480.60  4587.31

 Zero-point correction=                           0.065898 (Hartree/Particle)
 Thermal correction to Energy=                    0.070167
 Thermal correction to Enthalpy=                  0.071111
 Thermal correction to Gibbs Free Energy=         0.040286
 Sum of electronic and zero-point Energies=           -117.090489
 Sum of electronic and thermal Energies=              -117.086220
 Sum of electronic and thermal Enthalpies=            -117.085276
 Sum of electronic and thermal Free Energies=         -117.116101

                     E (Thermal)             CV                S
                      KCal/Mol        Cal/Mol-Kelvin    Cal/Mol-Kelvin
 Total                   44.031             13.137             64.877
 Electronic               0.000              0.000              1.377
 Translational            0.889              2.981             37.063
 Rotational               0.889              2.981             21.620
 Vibrational             42.253              7.176              4.816
 Vibration     1          0.633              1.854              2.231
 Vibration     2          0.706              1.635              1.309
 Vibration     3          0.845              1.275              0.686

 Optimization completed.
    -- Stationary point found.
 Normal termination of Gaussian 16 at Fri May 31 22:39:37 2019.
