 Gaussian 16, Revision B.01,
 Gaussian 16:  ES64L-G16RevB.01 20-Dec-2017

 -----------------------------------------------
 # opt=maxcyc=500 freq=noraman uB2PLYPD3/cc-pvtz
 -----------------------------------------------

 -------------------
 Title Card Required
 -------------------
 Symbolic Z-matrix:
 Charge =  0 Multiplicity = 2

 SCF Done:  E(UB2PLYPD3) =  -118.214271195     A.U. after   13 cycles
 E2(B2PLYPD3) =    -0.1649926636D+00 E(B2PLYPD3) =    -0.11837926385903D+03
 SCF Done:  E(UB2PLYPD3) =  -118.226797544     A.U. after   12 cycles
 E2(B2PLYPD3) =    -0.1640746014D+00 E(B2PLYPD3) =    -0.11839087214539D+03
 SCF Done:  E(UB2PLYPD3) =  -118.229397636     A.U. after   12 cycles
 E2(B2PLYPD3) =    -0.1640668405D+00 E(B2PLYPD3) =    -0.11839346447692D+03
 SCF Done:  E(UB2PLYPD3) =  -118.229801752     A.U. after   11 cycles
 E2(B2PLYPD3) =    -0.1641540341D+00 E(B2PLYPD3) =    -0.11839395578649D+03
 SCF Done:  E(UB2PLYPD3) =  -118.229844638     A.U. after    9 cycles
 E2(B2PLYPD3) =    -0.1641433502D+00 E(B2PLYPD3) =    -0.11839398798794D+03
 SCF Done:  E(UB2PLYPD3) =  -118.229853437     A.U. after   10 cycles
 E2(B2PLYPD3) =    -0.1641452511D+00 E(B2PLYPD3) =    -0.11839399868791D+03
 SCF Done:  E(UB2PLYPD3) =  -118.229857860     A.U. after    8 cycles
 E2(B2PLYPD3) =    -0.1641417523D+00 E(B2PLYPD3) =    -0.11839399961252D+03
 SCF Done:  E(UB2PLYPD3) =  -118.229863298     A.U. after    9 cycles
 E2(B2PLYPD3) =    -0.1641386393D+00 E(B2PLYPD3) =    -0.11839400193753D+03
 SCF Done:  E(UB2PLYPD3) =  -118.229868386     A.U. after   10 cycles
 E2(B2PLYPD3) =    -0.1641361293D+00 E(B2PLYPD3) =    -0.11839400451518D+03
 SCF Done:  E(UB2PLYPD3) =  -118.229866630     A.U. after    8 cycles
 E2(B2PLYPD3) =    -0.1641383454D+00 E(B2PLYPD3) =    -0.11839400497578D+03
 SCF Done:  E(UB2PLYPD3) =  -118.229865609     A.U. after    6 cycles
 E2(B2PLYPD3) =    -0.1641394559D+00 E(B2PLYPD3) =    -0.11839400506523D+03
 Optimization completed.
    -- Stationary point found.
 Normal termination of Gaussian 16 at Fri May 31 23:05:57 2019.

 ----------------------------------------------------------------------
 #N Geom=AllCheck Guess=TCheck SCRF=Check GenChk UB2PLYPD3(FC)/CC-pVTZ
 Freq
 ----------------------------------------------------------------------

 Structure from the checkpoint file:  "/localscratch/339542/Gau-49555.chk"
 -------------------
 Title Card Required
 -------------------
 Charge =  0 Multiplicity = 2

                         Standard orientation:
 ---------------------------------------------------------------------
 Center     Atomic      Atomic             Coordinates (Angstroms)
 Number     Number       Type             X           Y           Z
 ---------------------------------------------------------------------
      1          6           0        1.220276   -0.242776   -0.034505
      2          6           0       -0.079881    0.555067    0.046406
      3          1           0        2.089818    0.407201    0.049597
      4          1           0        1.272446   -0.977421    0.768968
      5          1           0        1.288052   -0.779085   -0.980059
      6          6           0       -1.296300   -0.294705   -0.028853
      7          1           0       -0.084782    1.129234    0.983680
      8          1           0       -0.105773    1.308332   -0.745143
      9          1           0       -2.258060    0.130956   -0.268738
     10          1           0       -1.266275   -1.324729    0.293408
 ---------------------------------------------------------------------

 SCF Done:  E(UB2PLYPD3) =  -118.229865609     A.U. after    1 cycles
 E2(B2PLYPD3) =    -0.1641394565D+00 E(B2PLYPD3) =    -0.11839400506582D+03
 E2(B2PLYPD3) =    -0.1641394565D+00 E(B2PLYPD3) =    -0.11839400506582D+03

 The electronic state is 2-A.
 Alpha  occ. eigenvalues --  -10.61343 -10.61215 -10.60028  -0.90193  -0.78154
 Alpha  occ. eigenvalues --   -0.67570  -0.52755  -0.51392  -0.47553  -0.42200
 Alpha  occ. eigenvalues --   -0.41482  -0.40457  -0.26221
 Alpha virt. eigenvalues --    0.08448   0.11877   0.12107   0.13705   0.15732
 Alpha virt. eigenvalues --    0.17363   0.17945   0.22896   0.28205   0.30905
 Alpha virt. eigenvalues --    0.31994   0.33865   0.35757   0.38329   0.40901

  Beta  occ. eigenvalues --  -10.61365 -10.59995 -10.59627  -0.88921  -0.75670
  Beta  occ. eigenvalues --   -0.65443  -0.52004  -0.50411  -0.46936  -0.41275
  Beta  occ. eigenvalues --   -0.40760  -0.40037
  Beta virt. eigenvalues --    0.02282   0.08596   0.11984   0.12702   0.13869
  Beta virt. eigenvalues --    0.15900   0.17549   0.18239   0.23018   0.28313
  Beta virt. eigenvalues --    0.31119   0.32187   0.34191   0.36149   0.40977

 Mulliken charges and spin densities:
               1          2
     1  C   -0.296750   0.009884
     2  C   -0.120991  -0.081430
     3  H    0.099171   0.000281
     4  H    0.092448  -0.000544
     5  H    0.097887   0.002696
     6  C   -0.308326   1.083982
     7  H    0.093999   0.054038
     8  H    0.094175   0.018890
     9  H    0.127962  -0.043189
    10  H    0.120426  -0.044609
 Sum of Mulliken charges =  -0.00000   1.00000

 Dipole moment (field-independent basis, Debye):
    X=              0.1412    Y=              0.1976    Z=              0.1063  Tot=              0.2651
 Quadrupole moment (field-independent basis, Debye-Ang):
   XX=            -21.3661   YY=            -20.8201   ZZ=            -21.6418
   XY=             -0.0855   XZ=              0.1023   YZ=             -0.4404

  Exact polarizability:  41.659   0.733  36.716   0.598  -0.353  32.028
 Approx polarizability:  39.904   0.690  39.878   0.657  -0.472  36.744

                      1                      2                      3
                      A                      A                      A
 Frequencies --    111.7865               251.0917               373.9103
 Red. masses --      1.0327                 1.1073                 1.9407
 Frc consts  --      0.0076                 0.0411                 0.1599
 IR Inten    --      0.3514                 0.0256                 2.3066

                      4                      5                      6
                      A                      A                      A
 Frequencies --    483.8724               763.6479               891.7756
 Red. masses --      1.2760                 1.1794                 2.0223
 Frc consts  --      0.1760                 0.4052                 0.9476
 IR Inten    --     45.0197                 0.7991                 0.1139

                      7                      8                      9
                      A                      A                      A
 Frequencies --    931.8385              1061.3846              1096.7209
 Red. masses --      1.2889                 1.3857                 2.3692
 Frc consts  --      0.6594                 0.9198                 1.6790
 IR Inten    --      1.3049                 1.0426                 0.1546

                     10                     11                     12
                      A                      A                      A
 Frequencies --   1184.9069              1281.3264              1373.1634
 Red. masses --      1.8284                 1.1956                 1.4761
 Frc consts  --      1.5125                 1.1565                 1.6399
 IR Inten    --      0.2554                 0.1252                 2.1182

                     13                     14                     15
                      A                      A                      A
 Frequencies --   1420.8315              1481.6478              1483.0273
 Red. masses --      1.2475                 1.0691                 1.1706
 Frc consts  --      1.4838                 1.3828                 1.5169
 IR Inten    --      2.0894                 2.5269                 1.0571

                     16                     17                     18
                      A                      A                      A
 Frequencies --   1512.7091              1519.1093              2963.1540
 Red. masses --      1.0397                 1.0592                 1.0727
 Frc consts  --      1.4017                 1.4401                 5.5491
 IR Inten    --      6.1908                 3.5236                30.4395

                     19                     20                     21
                      A                      A                      A
 Frequencies --   3043.5008              3051.1459              3118.6693
 Red. masses --      1.0838                 1.0352                 1.1017
 Frc consts  --      5.9150                 5.6778                 6.3135
 IR Inten    --     18.2639                28.1306                36.2168

                     22                     23                     24
                      A                      A                      A
 Frequencies --   3124.8713              3165.1601              3269.0814
 Red. masses --      1.1022                 1.0509                 1.1185
 Frc consts  --      6.3413                 6.2032                 7.0427
 IR Inten    --     29.5160                15.4100                13.6631

 - Thermochemistry -
 -------------------
 Temperature   298.150 Kelvin.  Pressure   1.00000 Atm.
 Atom     1 has atomic number  6 and mass  12.00000

 Molecular mass:    43.05478 amu.
 Principal axes and moments of inertia in atomic units:
                           1         2         3
     Eigenvalues --    54.61362 199.52792 230.54999
           X            0.99998  -0.00609   0.00121
           Y            0.00613   0.99955  -0.02929
           Z           -0.00103   0.02930   0.99957
 This molecule is an asymmetric top.
 Rotational symmetry number  1.
 Rotational temperatures (Kelvin)      1.58594     0.43409     0.37568
 Rotational constants (GHZ):          33.04563     9.04506     7.82798
 Zero-point vibrational energy     233022.6 (Joules/Mol)
                                   55.69373 (Kcal/Mol)
 Warning -- explicit consideration of   4 degrees of freedom as
           vibrations may cause significant error
 Vibrational temperatures:    160.84   361.26   537.97   696.18  1098.72
          (Kelvin)           1283.07  1340.71  1527.10  1577.94  1704.82
                             1843.54  1975.68  2044.26  2131.76  2133.75
                             2176.45  2185.66  4263.32  4378.92  4389.92
                             4487.07  4495.99  4553.96  4703.48

 Zero-point correction=                           0.088754 (Hartree/Particle)
 Thermal correction to Energy=                    0.093668
 Thermal correction to Enthalpy=                  0.094612
 Thermal correction to Gibbs Free Energy=         0.062040
 Sum of electronic and zero-point Energies=           -118.305251
 Sum of electronic and thermal Energies=              -118.300338
 Sum of electronic and thermal Enthalpies=            -118.299393
 Sum of electronic and thermal Free Energies=         -118.331965

                     E (Thermal)             CV                S
                      KCal/Mol        Cal/Mol-Kelvin    Cal/Mol-Kelvin
 Total                   58.777             15.642             68.553
 Electronic               0.000              0.000              1.377
 Translational            0.889              2.981             37.206
 Rotational               0.889              2.981             22.445
 Vibrational             57.000              9.680              7.524
 Vibration     1          0.607              1.940              3.238
 Vibration     2          0.663              1.761              1.723
 Vibration     3          0.745              1.526              1.064
 Vibration     4          0.840              1.286              0.700

 Optimization completed.
    -- Stationary point found.
 Normal termination of Gaussian 16 at Fri May 31 23:12:30 2019.
