 Gaussian 16, Revision B.01,
 Gaussian 16:  ES64L-G16RevB.01 20-Dec-2017

 -----------------------------------------------
 # opt=maxcyc=500 freq=noraman uB2PLYPD3/cc-pvtz
 -----------------------------------------------

 -------------------
 Title Card Required
 -------------------
 Symbolic Z-matrix:
 Charge =  0 Multiplicity = 1

 SCF Done:  E(UB2PLYPD3) =  -118.882448644     A.U. after   10 cycles
 E2(B2PLYPD3) =    -0.1774083908D+00 E(B2PLYPD3) =    -0.11905985703522D+03
 SCF Done:  E(UB2PLYPD3) =  -118.887517612     A.U. after    9 cycles
 E2(B2PLYPD3) =    -0.1764913116D+00 E(B2PLYPD3) =    -0.11906400892401D+03
 SCF Done:  E(UB2PLYPD3) =  -118.887573737     A.U. after    7 cycles
 E2(B2PLYPD3) =    -0.1764671057D+00 E(B2PLYPD3) =    -0.11906404084271D+03
 SCF Done:  E(UB2PLYPD3) =  -118.887566060     A.U. after    6 cycles
 E2(B2PLYPD3) =    -0.1764772973D+00 E(B2PLYPD3) =    -0.11906404335777D+03
 Optimization completed.
    -- Stationary point found.
 Normal termination of Gaussian 16 at Fri May 31 22:49:55 2019.

 ----------------------------------------------------------------------
 #N Geom=AllCheck Guess=TCheck SCRF=Check GenChk UB2PLYPD3(FC)/CC-pVTZ
 Freq
 ----------------------------------------------------------------------

 Structure from the checkpoint file:  "/localscratch/339542/Gau-6494.chk"
 -------------------
 Title Card Required
 -------------------
 Charge =  0 Multiplicity = 1

                         Standard orientation:
 ---------------------------------------------------------------------
 Center     Atomic      Atomic             Coordinates (Angstroms)
 Number     Number       Type             X           Y           Z
 ---------------------------------------------------------------------
      1          6           0        1.267820   -0.259718   -0.000021
      2          6           0       -0.000001    0.587656   -0.000017
      3          1           0        2.164456    0.358777   -0.000066
      4          1           0        1.306383   -0.903133    0.879562
      5          1           0        1.306336   -0.903193   -0.879563
      6          6           0       -1.267819   -0.259718    0.000036
      7          1           0        0.000020    1.242914    0.872852
      8          1           0       -0.000020    1.242865   -0.872922
      9          1           0       -2.164457    0.358776    0.000045
     10          1           0       -1.306382   -0.903184   -0.879510
     11          1           0       -1.306336   -0.903142    0.879614
 ---------------------------------------------------------------------

 SCF Done:  E(UB2PLYPD3) =  -118.887566060     A.U. after    1 cycles
 E2(B2PLYPD3) =    -0.1764772987D+00 E(B2PLYPD3) =    -0.11906404335912D+03
 E2(B2PLYPD3) =    -0.1764772987D+00 E(B2PLYPD3) =    -0.11906404335912D+03

 The electronic state is 1-A.
 Alpha  occ. eigenvalues --  -10.60523 -10.59652 -10.59651  -0.89532  -0.78335
 Alpha  occ. eigenvalues --   -0.67531  -0.52825  -0.50522  -0.46241  -0.44403
 Alpha  occ. eigenvalues --   -0.39607  -0.39561  -0.38688
 Alpha virt. eigenvalues --    0.07977   0.11742   0.12381   0.12975   0.15458
 Alpha virt. eigenvalues --    0.16999   0.18047   0.19703   0.22103   0.28589
 Alpha virt. eigenvalues --    0.30084   0.30480   0.32110   0.35224   0.35589

  Beta  occ. eigenvalues --  -10.60523 -10.59652 -10.59651  -0.89532  -0.78335
  Beta  occ. eigenvalues --   -0.67531  -0.52825  -0.50522  -0.46241  -0.44403
  Beta  occ. eigenvalues --   -0.39607  -0.39561  -0.38688
  Beta virt. eigenvalues --    0.07977   0.11742   0.12381   0.12975   0.15458
  Beta virt. eigenvalues --    0.16999   0.18047   0.19703   0.22103   0.28589
  Beta virt. eigenvalues --    0.30084   0.30480   0.32110   0.35224   0.35589

 Mulliken charges and spin densities:
               1          2
     1  C   -0.294888   0.000000
     2  C   -0.151946   0.000000
     3  H    0.099689   0.000000
     4  H    0.090627  -0.000000
     5  H    0.090627  -0.000000
     6  C   -0.294888  -0.000000
     7  H    0.089918  -0.000000
     8  H    0.089918  -0.000000
     9  H    0.099689  -0.000000
    10  H    0.090627   0.000000
    11  H    0.090627   0.000000
 Sum of Mulliken charges =  -0.00000   0.00000

 Dipole moment (field-independent basis, Debye):
    X=             -0.0000    Y=              0.0833    Z=             -0.0000  Tot=              0.0833
 Quadrupole moment (field-independent basis, Debye-Ang):
   XX=            -22.4285   YY=            -22.0363   ZZ=            -21.5465
   XY=              0.0000   XZ=              0.0000   YZ=              0.0000

  Exact polarizability:  42.519  -0.000  37.655  -0.000  -0.000  35.926
 Approx polarizability:  41.318  -0.000  41.406   0.000  -0.000  41.336

                      1                      2                      3
                      A                      A                      A
 Frequencies --    221.6525               274.2931               368.5949
 Red. masses --      1.0281                 1.1349                 2.0490
 Frc consts  --      0.0298                 0.0503                 0.1640
 IR Inten    --      0.0000                 0.0008                 0.0551

                      4                      5                      6
                      A                      A                      A
 Frequencies --    757.0596               884.8226               916.7383
 Red. masses --      1.0784                 2.5603                 1.1003
 Frc consts  --      0.3642                 1.1810                 0.5448
 IR Inten    --      2.8116                 0.7604                 0.0000

                      7                      8                      9
                      A                      A                      A
 Frequencies --    938.7983              1072.3483              1188.5625
 Red. masses --      1.1928                 2.4387                 1.7945
 Frc consts  --      0.6194                 1.6522                 1.4936
 IR Inten    --      1.4832                 0.7654                 0.9260

                     10                     11                     12
                      A                      A                      A
 Frequencies --   1225.2522              1328.3146              1378.2400
 Red. masses --      1.6650                 1.1256                 1.4151
 Frc consts  --      1.4727                 1.1702                 1.5837
 IR Inten    --      0.0879                 0.0000                 2.5655

                     13                     14                     15
                      A                      A                      A
 Frequencies --   1415.3443              1431.9400              1504.5083
 Red. masses --      1.2822                 1.2351                 1.0377
 Frc consts  --      1.5133                 1.4921                 1.3840
 IR Inten    --      3.9868                 2.8151                 0.0000

                     16                     17                     18
                      A                      A                      A
 Frequencies --   1505.1252              1511.4473              1521.9833
 Red. masses --      1.0443                 1.0512                 1.0406
 Frc consts  --      1.3939                 1.4149                 1.4203
 IR Inten    --      0.0016                 1.9113                12.6547

                     19                     20                     21
                      A                      A                      A
 Frequencies --   1527.0760              3042.9785              3044.4771
 Red. masses --      1.0809                 1.0351                 1.0485
 Frc consts  --      1.4851                 5.6471                 5.7259
 IR Inten    --      4.6699                33.9030                 0.2373

                     22                     23                     24
                      A                      A                      A
 Frequencies --   3046.5505              3070.1886              3105.5917
 Red. masses --      1.0469                 1.1017                 1.1020
 Frc consts  --      5.7250                 6.1186                 6.2621
 IR Inten    --     47.1186                 3.2000                 0.0000

                     25                     26                     27
                      A                      A                      A
 Frequencies --   3116.0863              3116.6467              3118.5646
 Red. masses --      1.1017                 1.1029                 1.1004
 Frc consts  --      6.3030                 6.3121                 6.3053
 IR Inten    --     29.1780                94.0668                49.7299

 - Thermochemistry -
 -------------------
 Temperature   298.150 Kelvin.  Pressure   1.00000 Atm.
 Atom     1 has atomic number  6 and mass  12.00000

 Molecular mass:    44.06260 amu.
 Principal axes and moments of inertia in atomic units:
                           1         2         3
     Eigenvalues --    60.97683 212.67154 240.40519
           X            1.00000   0.00000   0.00002
           Y           -0.00000   1.00000   0.00003
           Z           -0.00002  -0.00003   1.00000
 This molecule is an asymmetric top.
 Rotational symmetry number  1.
 Rotational temperatures (Kelvin)      1.42044     0.40727     0.36028
 Rotational constants (GHZ):          29.59716     8.48605     7.50708
 Zero-point vibrational energy     272947.1 (Joules/Mol)
                                   65.23591 (Kcal/Mol)
 Warning -- explicit consideration of   3 degrees of freedom as
           vibrations may cause significant error
 Vibrational temperatures:    318.91   394.65   530.33  1089.24  1273.06
          (Kelvin)           1318.98  1350.72  1542.87  1710.08  1762.86
                             1911.15  1982.98  2036.36  2060.24  2164.65
                             2165.54  2174.64  2189.79  2197.12  4378.17
                             4380.32  4383.31  4417.32  4468.25  4483.35
                             4484.16  4486.92

 Zero-point correction=                           0.103960 (Hartree/Particle)
 Thermal correction to Energy=                    0.108476
 Thermal correction to Enthalpy=                  0.109420
 Thermal correction to Gibbs Free Energy=         0.078318
 Sum of electronic and zero-point Energies=           -118.960083
 Sum of electronic and thermal Energies=              -118.955567
 Sum of electronic and thermal Enthalpies=            -118.954623
 Sum of electronic and thermal Free Energies=         -118.985726

                     E (Thermal)             CV                S
                      KCal/Mol        Cal/Mol-Kelvin    Cal/Mol-Kelvin
 Total                   68.070             14.707             65.461
 Electronic               0.000              0.000              0.000
 Translational            0.889              2.981             37.275
 Rotational               0.889              2.981             22.660
 Vibrational             66.292              8.745              5.526
 Vibration     1          0.648              1.808              1.946
 Vibration     2          0.677              1.721              1.569
 Vibration     3          0.741              1.537              1.086

 Optimization completed.
    -- Stationary point found.
 Normal termination of Gaussian 16 at Fri May 31 22:58:31 2019.
