 Gaussian 16, Revision B.01,
 Gaussian 16:  ES64L-G16RevB.01 20-Dec-2017

 -----------------------------------------------
 # opt=maxcyc=500 freq=noraman uB2PLYPD3/cc-pvtz
 -----------------------------------------------

 -------------------
 Title Card Required
 -------------------
 Symbolic Z-matrix:
 Charge =  0 Multiplicity = 2

 SCF Done:  E(UB2PLYPD3) =  -118.220532351     A.U. after   13 cycles
 E2(B2PLYPD3) =    -0.1647640532D+00 E(B2PLYPD3) =    -0.11838529640405D+03
 SCF Done:  E(UB2PLYPD3) =  -118.231676667     A.U. after   12 cycles
 E2(B2PLYPD3) =    -0.1642932705D+00 E(B2PLYPD3) =    -0.11839596993798D+03
 SCF Done:  E(UB2PLYPD3) =  -118.234402784     A.U. after   12 cycles
 E2(B2PLYPD3) =    -0.1643259353D+00 E(B2PLYPD3) =    -0.11839872871952D+03
 SCF Done:  E(UB2PLYPD3) =  -118.234831761     A.U. after   11 cycles
 E2(B2PLYPD3) =    -0.1644020315D+00 E(B2PLYPD3) =    -0.11839923379204D+03
 SCF Done:  E(UB2PLYPD3) =  -118.234902980     A.U. after   10 cycles
 E2(B2PLYPD3) =    -0.1644140019D+00 E(B2PLYPD3) =    -0.11839931698188D+03
 SCF Done:  E(UB2PLYPD3) =  -118.234935099     A.U. after   10 cycles
 E2(B2PLYPD3) =    -0.1644102410D+00 E(B2PLYPD3) =    -0.11839934534040D+03
 SCF Done:  E(UB2PLYPD3) =  -118.234960260     A.U. after   10 cycles
 E2(B2PLYPD3) =    -0.1644070494D+00 E(B2PLYPD3) =    -0.11839936730936D+03
 SCF Done:  E(UB2PLYPD3) =  -118.234973562     A.U. after   10 cycles
 E2(B2PLYPD3) =    -0.1644073973D+00 E(B2PLYPD3) =    -0.11839938095904D+03
 SCF Done:  E(UB2PLYPD3) =  -118.234969130     A.U. after    8 cycles
 E2(B2PLYPD3) =    -0.1644135659D+00 E(B2PLYPD3) =    -0.11839938269577D+03
 SCF Done:  E(UB2PLYPD3) =  -118.234969032     A.U. after    7 cycles
 E2(B2PLYPD3) =    -0.1644138734D+00 E(B2PLYPD3) =    -0.11839938290507D+03
 SCF Done:  E(UB2PLYPD3) =  -118.234969183     A.U. after    7 cycles
 E2(B2PLYPD3) =    -0.1644137499D+00 E(B2PLYPD3) =    -0.11839938293274D+03
 Optimization completed.
    -- Stationary point found.
 Normal termination of Gaussian 16 at Fri May 31 23:20:08 2019.

 ----------------------------------------------------------------------
 #N Geom=AllCheck Guess=TCheck SCRF=Check GenChk UB2PLYPD3(FC)/CC-pVTZ
 Freq
 ----------------------------------------------------------------------

 Structure from the checkpoint file:  "/localscratch/339542/Gau-50608.chk"
 -------------------
 Title Card Required
 -------------------
 Charge =  0 Multiplicity = 2

                         Standard orientation:
 ---------------------------------------------------------------------
 Center     Atomic      Atomic             Coordinates (Angstroms)
 Number     Number       Type             X           Y           Z
 ---------------------------------------------------------------------
      1          6           0        1.290036   -0.198667    0.003326
      2          6           0       -0.000002    0.537605   -0.049547
      3          1           0        2.137434    0.443442   -0.229394
      4          1           0        1.473437   -0.628271    0.997655
      5          1           0        1.296439   -1.038744   -0.695560
      6          6           0       -1.290031   -0.198665    0.003325
      7          1           0       -0.000003    1.605525    0.111973
      8          1           0       -2.137442    0.443443   -0.229356
      9          1           0       -1.473428   -0.628306    0.997641
     10          1           0       -1.296460   -1.038727   -0.695578
 ---------------------------------------------------------------------

 SCF Done:  E(UB2PLYPD3) =  -118.234969183     A.U. after    1 cycles
 E2(B2PLYPD3) =    -0.1644137488D+00 E(B2PLYPD3) =    -0.11839938293158D+03
 E2(B2PLYPD3) =    -0.1644137488D+00 E(B2PLYPD3) =    -0.11839938293158D+03

 The electronic state is 2-A.
 Alpha  occ. eigenvalues --  -10.61398 -10.60192 -10.60191  -0.90039  -0.79449
 Alpha  occ. eigenvalues --   -0.66293  -0.52358  -0.50204  -0.47498  -0.45002
 Alpha  occ. eigenvalues --   -0.41543  -0.40971  -0.24225
 Alpha virt. eigenvalues --    0.08305   0.11670   0.11678   0.14910   0.16400
 Alpha virt. eigenvalues --    0.17424   0.19009   0.22727   0.29267   0.29293
 Alpha virt. eigenvalues --    0.30702   0.34279   0.34708   0.39538   0.42339

  Beta  occ. eigenvalues --  -10.60345 -10.60344 -10.59658  -0.87569  -0.79229
  Beta  occ. eigenvalues --   -0.63166  -0.51803  -0.47515  -0.46790  -0.44070
  Beta  occ. eigenvalues --   -0.41142  -0.40351
  Beta virt. eigenvalues --    0.03394   0.08404   0.11756   0.12013   0.15332
  Beta virt. eigenvalues --    0.16695   0.17502   0.19244   0.23262   0.29502
  Beta virt. eigenvalues --    0.29545   0.30936   0.34583   0.36040   0.40650

 Mulliken charges and spin densities:
               1          2
     1  C   -0.275078  -0.077705
     2  C   -0.155143   1.016056
     3  H    0.102817   0.005181
     4  H    0.091186   0.061179
     5  H    0.094097   0.024521
     6  C   -0.275078  -0.077708
     7  H    0.129099  -0.042408
     8  H    0.102817   0.005180
     9  H    0.091184   0.061182
    10  H    0.094098   0.024524
 Sum of Mulliken charges =  -0.00000   1.00000

 Dipole moment (field-independent basis, Debye):
    X=             -0.0000    Y=             -0.0755    Z=              0.1640  Tot=              0.1805
 Quadrupole moment (field-independent basis, Debye-Ang):
   XX=            -20.9585   YY=            -20.7588   ZZ=            -21.7027
   XY=              0.0000   XZ=             -0.0000   YZ=              0.2717

  Exact polarizability:  43.113   0.000  36.865  -0.000  -0.225  31.988
 Approx polarizability:  40.651   0.000  40.333  -0.000  -0.182  36.671

                      1                      2                      3
                      A                      A                      A
 Frequencies --    111.9315               128.5640               350.5543
 Red. masses --      1.0226                 1.1421                 1.6506
 Frc consts  --      0.0075                 0.0111                 0.1195
 IR Inten    --      0.0104                 0.5863                12.1382

                      4                      5                      6
                      A                      A                      A
 Frequencies --    398.2021               895.7827               945.3588
 Red. masses --      1.5440                 2.6138                 1.1945
 Frc consts  --      0.1442                 1.2357                 0.6289
 IR Inten    --     12.4902                 1.8148                 0.0025

                      7                      8                      9
                      A                      A                      A
 Frequencies --    952.9675              1039.7217              1157.4335
 Red. masses --      1.1985                 1.4477                 2.0217
 Frc consts  --      0.6413                 0.9221                 1.5957
 IR Inten    --      0.9839                 0.0436                 0.1491

                     10                     11                     12
                      A                      A                      A
 Frequencies --   1191.2391              1380.1754              1422.7957
 Red. masses --      1.8903                 1.3079                 1.5217
 Frc consts  --      1.5805                 1.4679                 1.8149
 IR Inten    --      2.2050                 2.5916                 7.8046

                     13                     14                     15
                      A                      A                      A
 Frequencies --   1423.2415              1482.8472              1491.6917
 Red. masses --      1.2099                 1.0713                 1.0446
 Frc consts  --      1.4440                 1.3879                 1.3695
 IR Inten    --      4.1263                 0.8268                 0.7233

                     16                     17                     18
                      A                      A                      A
 Frequencies --   1493.6693              1504.4140              2971.6921
 Red. masses --      1.0491                 1.0488                 1.0567
 Frc consts  --      1.3791                 1.3985                 5.4983
 IR Inten    --     13.2644                 4.2200                23.1515

                     19                     20                     21
                      A                      A                      A
 Frequencies --   2974.8709              3048.6253              3048.9451
 Red. masses --      1.0583                 1.0781                 1.0759
 Frc consts  --      5.5181                 5.9037                 5.8927
 IR Inten    --     48.2637                 6.5751                46.9614

                     22                     23                     24
                      A                      A                      A
 Frequencies --   3117.5184              3118.4980              3200.8919
 Red. masses --      1.0955                 1.0965                 1.0890
 Frc consts  --      6.2731                 6.2828                 6.5736
 IR Inten    --     17.7944                26.4659                24.8974

 - Thermochemistry -
 -------------------
 Temperature   298.150 Kelvin.  Pressure   1.00000 Atm.
 Atom     1 has atomic number  6 and mass  12.00000

 Molecular mass:    43.05478 amu.
 Principal axes and moments of inertia in atomic units:
                           1         2         3
     Eigenvalues --    48.18185 214.39883 240.26383
           X            1.00000   0.00000  -0.00000
           Y           -0.00000   0.99975   0.02230
           Z            0.00000  -0.02230   0.99975
 This molecule is an asymmetric top.
 Rotational symmetry number  1.
 Rotational temperatures (Kelvin)      1.79765     0.40399     0.36050
 Rotational constants (GHZ):          37.45687     8.41768     7.51150
 Zero-point vibrational energy     232384.4 (Joules/Mol)
                                   55.54120 (Kcal/Mol)
 Warning -- explicit consideration of   4 degrees of freedom as
           vibrations may cause significant error
 Vibrational temperatures:    161.04   184.97   504.37   572.92  1288.83
          (Kelvin)           1360.16  1371.11  1495.93  1665.29  1713.93
                             1985.76  2047.09  2047.73  2133.49  2146.21
                             2149.06  2164.52  4275.60  4280.18  4386.29
                             4386.75  4485.41  4486.82  4605.37

 Zero-point correction=                           0.088511 (Hartree/Particle)
 Thermal correction to Energy=                    0.093663
 Thermal correction to Enthalpy=                  0.094608
 Thermal correction to Gibbs Free Energy=         0.061350
 Sum of electronic and zero-point Energies=           -118.310872
 Sum of electronic and thermal Energies=              -118.305720
 Sum of electronic and thermal Enthalpies=            -118.304775
 Sum of electronic and thermal Free Energies=         -118.338033

                     E (Thermal)             CV                S
                      KCal/Mol        Cal/Mol-Kelvin    Cal/Mol-Kelvin
 Total                   58.775             15.650             69.996
 Electronic               0.000              0.000              1.377
 Translational            0.889              2.981             37.206
 Rotational               0.889              2.981             22.433
 Vibrational             56.997              9.688              8.980
 Vibration     1          0.607              1.940              3.235
 Vibration     2          0.611              1.925              2.967
 Vibration     3          0.727              1.574              1.164
 Vibration     4          0.764              1.474              0.969

 Optimization completed.
    -- Stationary point found.
 Normal termination of Gaussian 16 at Fri May 31 23:26:34 2019.
