 Gaussian 16, Revision B.01,
 Gaussian 16:  ES64L-G16RevB.01 20-Dec-2017

 ----------------------------------------------------------------------
 # opt=(maxcyc=500,modredundant) uB2PLYPD3/cc-pvtz scf=maxcyc=500 nosym
 m
 ----------------------------------------------------------------------

 -------------------
 Title Card Required
 -------------------
 Symbolic Z-matrix:
 Charge =  0 Multiplicity = 1

 SCF Done:  E(UB2PLYPD3) =  -118.882448187     A.U. after   10 cycles
 E2(B2PLYPD3) =    -0.1774083844D+00 E(B2PLYPD3) =    -0.11905985657117D+03
 SCF Done:  E(UB2PLYPD3) =  -118.887510290     A.U. after    9 cycles
 E2(B2PLYPD3) =    -0.1764909155D+00 E(B2PLYPD3) =    -0.11906400120545D+03
 SCF Done:  E(UB2PLYPD3) =  -118.887573240     A.U. after    7 cycles
 E2(B2PLYPD3) =    -0.1764660970D+00 E(B2PLYPD3) =    -0.11906403933683D+03
 SCF Done:  E(UB2PLYPD3) =  -118.887564713     A.U. after    6 cycles
 E2(B2PLYPD3) =    -0.1764775640D+00 E(B2PLYPD3) =    -0.11906404227672D+03
 Optimization completed.
    -- Stationary point found.
 SCF Done:  E(UB2PLYPD3) =  -118.887187058     A.U. after    8 cycles
 E2(B2PLYPD3) =    -0.1764915695D+00 E(B2PLYPD3) =    -0.11906367862752D+03
 SCF Done:  E(UB2PLYPD3) =  -118.887223846     A.U. after    7 cycles
 E2(B2PLYPD3) =    -0.1764992701D+00 E(B2PLYPD3) =    -0.11906372311637D+03
 SCF Done:  E(UB2PLYPD3) =  -118.887230076     A.U. after    6 cycles
 E2(B2PLYPD3) =    -0.1764964635D+00 E(B2PLYPD3) =    -0.11906372653987D+03
 SCF Done:  E(UB2PLYPD3) =  -118.887229995     A.U. after    5 cycles
 E2(B2PLYPD3) =    -0.1764967550D+00 E(B2PLYPD3) =    -0.11906372674981D+03
 SCF Done:  E(UB2PLYPD3) =  -118.887229859     A.U. after    5 cycles
 E2(B2PLYPD3) =    -0.1764969757D+00 E(B2PLYPD3) =    -0.11906372683440D+03
 Optimization completed.
 SCF Done:  E(UB2PLYPD3) =  -118.886332829     A.U. after    8 cycles
 E2(B2PLYPD3) =    -0.1765222333D+00 E(B2PLYPD3) =    -0.11906285506185D+03
 E2(B2PLYPD3) =    -0.1765273527D+00 E(B2PLYPD3) =    -0.11906289182155D+03
 E2(B2PLYPD3) =    -0.1765572446D+00 E(B2PLYPD3) =    -0.11906168565613D+03
 E2(B2PLYPD3) =    -0.1765593927D+00 E(B2PLYPD3) =    -0.11906170797930D+03
 E2(B2PLYPD3) =    -0.1765840384D+00 E(B2PLYPD3) =    -0.11906043701082D+03
 E2(B2PLYPD3) =    -0.1765790468D+00 E(B2PLYPD3) =    -0.11906045489384D+03
 E2(B2PLYPD3) =    -0.1765930817D+00 E(B2PLYPD3) =    -0.11905945562043D+03
 E2(B2PLYPD3) =    -0.1765805213D+00 E(B2PLYPD3) =    -0.11905948751963D+03
 E2(B2PLYPD3) =    -0.1765793705D+00 E(B2PLYPD3) =    -0.11905948796324D+03
 E2(B2PLYPD3) =    -0.1765842636D+00 E(B2PLYPD3) =    -0.11905908024033D+03
 E2(B2PLYPD3) =    -0.1765690004D+00 E(B2PLYPD3) =    -0.11905913195315D+03
 E2(B2PLYPD3) =    -0.1765710026D+00 E(B2PLYPD3) =    -0.11905945652729D+03
 E2(B2PLYPD3) =    -0.1765706483D+00 E(B2PLYPD3) =    -0.11905945699168D+03
 E2(B2PLYPD3) =    -0.1765752880D+00 E(B2PLYPD3) =    -0.11905907967428D+03
 E2(B2PLYPD3) =    -0.1765687434D+00 E(B2PLYPD3) =    -0.11905913407276D+03
 E2(B2PLYPD3) =    -0.1765697999D+00 E(B2PLYPD3) =    -0.11905913425260D+03
 E2(B2PLYPD3) =    -0.1765658224D+00 E(B2PLYPD3) =    -0.11905950616925D+03
 E2(B2PLYPD3) =    -0.1765667430D+00 E(B2PLYPD3) =    -0.11905955867195D+03
 E2(B2PLYPD3) =    -0.1765671527D+00 E(B2PLYPD3) =    -0.11905955905424D+03
 E2(B2PLYPD3) =    -0.1765530608D+00 E(B2PLYPD3) =    -0.11906054056328D+03
 E2(B2PLYPD3) =    -0.1765569821D+00 E(B2PLYPD3) =    -0.11906056997096D+03
 SCF Done:  E(UB2PLYPD3) =  -118.885280070     A.U. after    8 cycles
 E2(B2PLYPD3) =    -0.1765327311D+00 E(B2PLYPD3) =    -0.11906181280091D+03
 SCF Done:  E(UB2PLYPD3) =  -118.885294459     A.U. after    7 cycles
 E2(B2PLYPD3) =    -0.1765348401D+00 E(B2PLYPD3) =    -0.11906182929858D+03
 SCF Done:  E(UB2PLYPD3) =  -118.886458383     A.U. after    8 cycles
 E2(B2PLYPD3) =    -0.1765061612D+00 E(B2PLYPD3) =    -0.11906296454385D+03
 SCF Done:  E(UB2PLYPD3) =  -118.886482076     A.U. after    7 cycles
 E2(B2PLYPD3) =    -0.1765062930D+00 E(B2PLYPD3) =    -0.11906298836937D+03
 SCF Done:  E(UB2PLYPD3) =  -118.886482138     A.U. after    6 cycles
 E2(B2PLYPD3) =    -0.1765066655D+00 E(B2PLYPD3) =    -0.11906298880331D+03
 SCF Done:  E(UB2PLYPD3) =  -118.887256968     A.U. after    8 cycles
 E2(B2PLYPD3) =    -0.1764837054D+00 E(B2PLYPD3) =    -0.11906374067316D+03
 SCF Done:  E(UB2PLYPD3) =  -118.887296425     A.U. after    7 cycles
 E2(B2PLYPD3) =    -0.1764834555D+00 E(B2PLYPD3) =    -0.11906377988042D+03
    -- Stationary point found.
 SCF Done:  E(UB2PLYPD3) =  -118.887516319     A.U. after    9 cycles
 E2(B2PLYPD3) =    -0.1764768922D+00 E(B2PLYPD3) =    -0.11906399321091D+03
 SCF Done:  E(UB2PLYPD3) =  -118.887563810     A.U. after    7 cycles
 E2(B2PLYPD3) =    -0.1764788280D+00 E(B2PLYPD3) =    -0.11906404263781D+03
 SCF Done:  E(UB2PLYPD3) =  -118.887562941     A.U. after    5 cycles
 E2(B2PLYPD3) =    -0.1764799130D+00 E(B2PLYPD3) =    -0.11906404285368D+03
 Optimization completed.
    -- Stationary point found.

                          Input orientation:
 ---------------------------------------------------------------------
 Center     Atomic      Atomic             Coordinates (Angstroms)
 Number     Number       Type             X           Y           Z
 ---------------------------------------------------------------------
      1          6           0       -1.013991    0.520140    0.180550
      2          6           0        0.413222    0.164231    0.583651
      3          1           0       -1.616393    0.803127    1.042827
      4          1           0       -1.023438    1.354971   -0.521015
      5          1           0       -1.503170   -0.324032   -0.306445
      6          6           0        1.276501   -0.225375   -0.611941
      7          1           0        0.867875    1.011337    1.100374
      8          1           0        0.394354   -0.657648    1.301648
      9          1           0        2.292003   -0.477610   -0.309252
     10          1           0        0.858002   -1.089410   -1.129088
     11          1           0        1.335895    0.591584   -1.331791
 ---------------------------------------------------------------------

 Alpha  occ. eigenvalues --  -10.60527 -10.59654 -10.59653  -0.89526  -0.78331
 Alpha  occ. eigenvalues --   -0.67528  -0.52828  -0.50518  -0.46234  -0.44405
 Alpha  occ. eigenvalues --   -0.39603  -0.39554  -0.38697
 Alpha virt. eigenvalues --    0.07977   0.11742   0.12383   0.12974   0.15455
 Alpha virt. eigenvalues --    0.16996   0.18049   0.19706   0.22100   0.28580
 Alpha virt. eigenvalues --    0.30081   0.30481   0.32111   0.35215   0.35592

  Beta  occ. eigenvalues --  -10.60527 -10.59654 -10.59653  -0.89526  -0.78331
  Beta  occ. eigenvalues --   -0.67528  -0.52828  -0.50518  -0.46234  -0.44405
  Beta  occ. eigenvalues --   -0.39603  -0.39554  -0.38697
  Beta virt. eigenvalues --    0.07977   0.11742   0.12383   0.12974   0.15455
  Beta virt. eigenvalues --    0.16996   0.18049   0.19706   0.22100   0.28580
  Beta virt. eigenvalues --    0.30081   0.30481   0.32111   0.35215   0.35592

 Mulliken charges and spin densities:
               1          2
     1  C   -0.294869   0.000000
     2  C   -0.152004   0.000000
     3  H    0.099710  -0.000000
     4  H    0.090523  -0.000000
     5  H    0.090730  -0.000000
     6  C   -0.294887   0.000000
     7  H    0.089938   0.000000
     8  H    0.089906  -0.000000
     9  H    0.099707  -0.000000
    10  H    0.090616  -0.000000
    11  H    0.090629  -0.000000
 Sum of Mulliken charges =  -0.00000  -0.00000

 Dipole moment (field-independent basis, Debye):
    X=              0.0276    Y=              0.0016    Z=              0.0784  Tot=              0.0831
 Quadrupole moment (field-independent basis, Debye-Ang):
   XX=            -22.3092   YY=            -21.6199   ZZ=            -22.0669
   XY=              0.2359   XZ=              0.1134   YZ=             -0.0770

 Normal termination of Gaussian 16 at Sat Jun  1 02:44:10 2019.
