 Gaussian 16, Revision B.01,
 Gaussian 16:  ES64L-G16RevB.01 20-Dec-2017

 -----------------------------------------------
 # opt=maxcyc=500 freq=noraman uB2PLYPD3/cc-pvtz
 -----------------------------------------------

 -------------------
 Title Card Required
 -------------------
 Symbolic Z-matrix:
 Charge =  0 Multiplicity = 2

 SCF Done:  E(UB2PLYPD3) =  -157.451475440     A.U. after   14 cycles
 E2(B2PLYPD3) =    -0.2216442677D+00 E(B2PLYPD3) =    -0.15767311970775D+03
 SCF Done:  E(UB2PLYPD3) =  -157.464415000     A.U. after   13 cycles
 E2(B2PLYPD3) =    -0.2209205439D+00 E(B2PLYPD3) =    -0.15768533554432D+03
 SCF Done:  E(UB2PLYPD3) =  -157.467333788     A.U. after   11 cycles
 E2(B2PLYPD3) =    -0.2209405782D+00 E(B2PLYPD3) =    -0.15768827436630D+03
 SCF Done:  E(UB2PLYPD3) =  -157.467898353     A.U. after   11 cycles
 E2(B2PLYPD3) =    -0.2210294360D+00 E(B2PLYPD3) =    -0.15768892778881D+03
 SCF Done:  E(UB2PLYPD3) =  -157.467970564     A.U. after   10 cycles
 E2(B2PLYPD3) =    -0.2210509064D+00 E(B2PLYPD3) =    -0.15768902147052D+03
 SCF Done:  E(UB2PLYPD3) =  -157.468021904     A.U. after   10 cycles
 E2(B2PLYPD3) =    -0.2210398280D+00 E(B2PLYPD3) =    -0.15768906173166D+03
 SCF Done:  E(UB2PLYPD3) =  -157.468028236     A.U. after    9 cycles
 E2(B2PLYPD3) =    -0.2210446585D+00 E(B2PLYPD3) =    -0.15768907289466D+03
 SCF Done:  E(UB2PLYPD3) =  -157.468043914     A.U. after   10 cycles
 E2(B2PLYPD3) =    -0.2210406740D+00 E(B2PLYPD3) =    -0.15768908458756D+03
 SCF Done:  E(UB2PLYPD3) =  -157.468044176     A.U. after    8 cycles
 E2(B2PLYPD3) =    -0.2210436187D+00 E(B2PLYPD3) =    -0.15768908779494D+03
 SCF Done:  E(UB2PLYPD3) =  -157.468045709     A.U. after    9 cycles
 E2(B2PLYPD3) =    -0.2210427230D+00 E(B2PLYPD3) =    -0.15768908843153D+03
 SCF Done:  E(UB2PLYPD3) =  -157.468045260     A.U. after    7 cycles
 E2(B2PLYPD3) =    -0.2210432930D+00 E(B2PLYPD3) =    -0.15768908855270D+03
 SCF Done:  E(UB2PLYPD3) =  -157.468045680     A.U. after    7 cycles
 E2(B2PLYPD3) =    -0.2210430575D+00 E(B2PLYPD3) =    -0.15768908873746D+03
 SCF Done:  E(UB2PLYPD3) =  -157.468045447     A.U. after    7 cycles
 E2(B2PLYPD3) =    -0.2210433545D+00 E(B2PLYPD3) =    -0.15768908880105D+03
 Optimization completed.
    -- Stationary point found.
 Normal termination of Gaussian 16 at Sat Jun  1 00:59:30 2019.

 ----------------------------------------------------------------------
 #N Geom=AllCheck Guess=TCheck SCRF=Check GenChk UB2PLYPD3(FC)/CC-pVTZ
 Freq
 ----------------------------------------------------------------------

 Structure from the checkpoint file:  "/localscratch/339542/Gau-95148.chk"
 -------------------
 Title Card Required
 -------------------
 Charge =  0 Multiplicity = 2

                         Standard orientation:
 ---------------------------------------------------------------------
 Center     Atomic      Atomic             Coordinates (Angstroms)
 Number     Number       Type             X           Y           Z
 ---------------------------------------------------------------------
      1          6           0       -1.928435    0.166258   -0.068329
      2          6           0       -0.565653   -0.505493    0.077977
      3          1           0       -2.737568   -0.560564   -0.016386
      4          1           0       -2.085462    0.898175    0.723886
      5          1           0       -2.002733    0.687804   -1.021784
      6          6           0        0.575932    0.447250    0.031209
      7          1           0       -0.542583   -1.068280    1.023409
      8          1           0       -0.437863   -1.264158   -0.701407
      9          6           0        1.976070   -0.043458   -0.055737
     10          1           0        0.396219    1.479138    0.301559
     11          1           0        2.677060    0.759227   -0.276981
     12          1           0        2.304186   -0.508406    0.883873
     13          1           0        2.081265   -0.810277   -0.826894
 ---------------------------------------------------------------------

 SCF Done:  E(UB2PLYPD3) =  -157.468045447     A.U. after    1 cycles
 E2(B2PLYPD3) =    -0.2210433535D+00 E(B2PLYPD3) =    -0.15768908880002D+03
 E2(B2PLYPD3) =    -0.2210433535D+00 E(B2PLYPD3) =    -0.15768908880002D+03

 The electronic state is 2-A.
 Alpha  occ. eigenvalues --  -10.61180 -10.60781 -10.60185 -10.59819  -0.91490
 Alpha  occ. eigenvalues --   -0.83725  -0.73200  -0.65611  -0.52727  -0.50292
 Alpha  occ. eigenvalues --   -0.49706  -0.47315  -0.43622  -0.41007  -0.40118
 Alpha  occ. eigenvalues --   -0.39672  -0.24161
 Alpha virt. eigenvalues --    0.08400   0.09894   0.11388   0.13388   0.15293
 Alpha virt. eigenvalues --    0.15902   0.17555   0.17846   0.18933   0.23233
 Alpha virt. eigenvalues --    0.25329   0.28378   0.29319   0.32401   0.32666

  Beta  occ. eigenvalues --  -10.60933 -10.60337 -10.59797 -10.59451  -0.89722
  Beta  occ. eigenvalues --   -0.83006  -0.72504  -0.63041  -0.51400  -0.49708
  Beta  occ. eigenvalues --   -0.49126  -0.45846  -0.43281  -0.40368  -0.39709
  Beta  occ. eigenvalues --   -0.39106
  Beta virt. eigenvalues --    0.03203   0.08530   0.09942   0.11619   0.13510
  Beta virt. eigenvalues --    0.15531   0.15999   0.17931   0.18168   0.19302
  Beta virt. eigenvalues --    0.23530   0.25655   0.28523   0.29493   0.32802

 Mulliken charges and spin densities:
               1          2
     1  C   -0.308240   0.006826
     2  C   -0.129675  -0.077868
     3  H    0.099894  -0.000599
     4  H    0.093018  -0.000437
     5  H    0.097323   0.002276
     6  C   -0.161711   1.018994
     7  H    0.087026   0.057913
     8  H    0.090058   0.023922
     9  C   -0.282348  -0.077805
    10  H    0.123520  -0.044226
    11  H    0.103967   0.005517
    12  H    0.092435   0.061489
    13  H    0.094733   0.023999
 Sum of Mulliken charges =   0.00000   1.00000

 Dipole moment (field-independent basis, Debye):
    X=              0.0527    Y=             -0.1380    Z=              0.1500  Tot=              0.2105
 Quadrupole moment (field-independent basis, Debye-Ang):
   XX=            -27.9932   YY=            -27.5701   ZZ=            -28.1488
   XY=              0.2507   XZ=             -0.0364   YZ=              0.3638

  Exact polarizability:  58.697  -0.343  47.437  -0.034  -0.027  42.149
 Approx polarizability:  53.510  -0.067  53.481  -0.114   0.116  49.607

                      1                      2                      3
                      A                      A                      A
 Frequencies --     63.7700               114.9779               238.4664
 Red. masses --      1.8612                 1.1101                 1.0951
 Frc consts  --      0.0045                 0.0086                 0.0367
 IR Inten    --      0.0431                 0.2024                 0.3180

                      4                      5                      6
                      A                      A                      A
 Frequencies --    257.8922               383.2436               433.4495
 Red. masses --      2.1032                 1.3559                 2.6858
 Frc consts  --      0.0824                 0.1173                 0.2973
 IR Inten    --      1.2931                20.4803                 0.2141

                      7                      8                      9
                      A                      A                      A
 Frequencies --    774.5845               857.0021               983.1252
 Red. masses --      1.1772                 1.9551                 1.2487
 Frc consts  --      0.4161                 0.8460                 0.7111
 IR Inten    --      0.8752                 0.2411                 1.3034

                     10                     11                     12
                      A                      A                      A
 Frequencies --    995.5071              1040.8446              1080.4812
 Red. masses --      1.2411                 2.9770                 1.4696
 Frc consts  --      0.7247                 1.9002                 1.0109
 IR Inten    --      2.6436                 0.2223                 0.9354

                     13                     14                     15
                      A                      A                      A
 Frequencies --   1142.8027              1193.3884              1281.2162
 Red. masses --      2.0882                 2.0698                 1.1989
 Frc consts  --      1.6068                 1.7367                 1.1595
 IR Inten    --      0.2586                 0.2770                 0.1106

                     16                     17                     18
                      A                      A                      A
 Frequencies --   1324.3329              1412.5601              1421.5146
 Red. masses --      1.3285                 1.2588                 1.2787
 Frc consts  --      1.3728                 1.4799                 1.5224
 IR Inten    --      6.3204                 1.3641                 1.7735

                     19                     20                     21
                      A                      A                      A
 Frequencies --   1429.6223              1481.5397              1488.7472
 Red. masses --      1.6834                 1.0675                 1.0622
 Frc consts  --      2.0271                 1.3805                 1.3871
 IR Inten    --      3.0681                 0.6087                 6.5030

                     22                     23                     24
                      A                      A                      A
 Frequencies --   1499.1764              1512.5355              1518.6522
 Red. masses --      1.0466                 1.0391                 1.0555
 Frc consts  --      1.3859                 1.4006                 1.4343
 IR Inten    --      5.4542                 6.4909                 3.6749

                     25                     26                     27
                      A                      A                      A
 Frequencies --   2949.4764              2974.1410              3019.3495
 Red. masses --      1.0726                 1.0577                 1.0833
 Frc consts  --      5.4974                 5.5123                 5.8184
 IR Inten    --     36.8115                40.5554                24.5693

                     28                     29                     30
                      A                      A                      A
 Frequencies --   3050.4726              3051.0331              3117.2761
 Red. masses --      1.0538                 1.0570                 1.0980
 Frc consts  --      5.7775                 5.7970                 6.2863
 IR Inten    --     42.6758                14.6399                36.0990

                     31                     32                     33
                      A                      A                      A
 Frequencies --   3117.5041              3123.6744              3183.8681
 Red. masses --      1.1000                 1.1021                 1.0882
 Frc consts  --      6.2986                 6.3355                 6.4994
 IR Inten    --     20.7975                30.4548                23.9935

 - Thermochemistry -
 -------------------
 Temperature   298.150 Kelvin.  Pressure   1.00000 Atm.
 Atom     1 has atomic number  6 and mass  12.00000

 Molecular mass:    57.07043 amu.
 Principal axes and moments of inertia in atomic units:
                           1         2         3
     Eigenvalues --    67.29112 492.17931 524.11292
           X            0.99998  -0.00684   0.00006
           Y            0.00684   0.99972   0.02282
           Z           -0.00022  -0.02282   0.99974
 This molecule is an asymmetric top.
 Rotational symmetry number  1.
 Rotational temperatures (Kelvin)      1.28715     0.17598     0.16526
 Rotational constants (GHZ):          26.81990     3.66684     3.44342
 Zero-point vibrational energy     308135.5 (Joules/Mol)
                                   73.64614 (Kcal/Mol)
 Warning -- explicit consideration of   6 degrees of freedom as
           vibrations may cause significant error
 Vibrational temperatures:     91.75   165.43   343.10   371.05   551.40
          (Kelvin)            623.64  1114.45  1233.03  1414.50  1432.31
                             1497.54  1554.57  1644.24  1717.02  1843.38
                             1905.42  2032.36  2045.24  2056.91  2131.61
                             2141.98  2156.98  2176.20  2185.00  4243.64
                             4279.13  4344.17  4388.95  4389.76  4485.07
                             4485.39  4494.27  4580.88

 Zero-point correction=                           0.117363 (Hartree/Particle)
 Thermal correction to Energy=                    0.123681
 Thermal correction to Enthalpy=                  0.124625
 Thermal correction to Gibbs Free Energy=         0.087722
 Sum of electronic and zero-point Energies=           -157.571726
 Sum of electronic and thermal Energies=              -157.565408
 Sum of electronic and thermal Enthalpies=            -157.564464
 Sum of electronic and thermal Free Energies=         -157.601366

                     E (Thermal)             CV                S
                      KCal/Mol        Cal/Mol-Kelvin    Cal/Mol-Kelvin
 Total                   77.611             20.390             77.668
 Electronic               0.000              0.000              1.377
 Translational            0.889              2.981             38.046
 Rotational               0.889              2.981             24.366
 Vibrational             75.833             14.428             13.878
 Vibration     1          0.597              1.972              4.337
 Vibration     2          0.608              1.937              3.183
 Vibration     3          0.656              1.782              1.814
 Vibration     4          0.667              1.749              1.676
 Vibration     5          0.752              1.506              1.026
 Vibration     6          0.794              1.397              0.847

 Optimization completed.
    -- Stationary point found.
 Normal termination of Gaussian 16 at Sat Jun  1 01:18:41 2019.
