 Gaussian 16, Revision B.01,
 Gaussian 16:  ES64L-G16RevB.01 20-Dec-2017

 -----------------------------------------------
 # opt=maxcyc=500 freq=noraman uB2PLYPD3/cc-pvtz
 -----------------------------------------------

 -------------------
 Title Card Required
 -------------------
 Symbolic Z-matrix:
 Charge =  0 Multiplicity = 2

 SCF Done:  E(UB2PLYPD3) =  -157.445925086     A.U. after   13 cycles
 E2(B2PLYPD3) =    -0.2219887117D+00 E(B2PLYPD3) =    -0.15766791379759D+03
 SCF Done:  E(UB2PLYPD3) =  -157.459972979     A.U. after   12 cycles
 E2(B2PLYPD3) =    -0.2207708813D+00 E(B2PLYPD3) =    -0.15768074386076D+03
 SCF Done:  E(UB2PLYPD3) =  -157.462719932     A.U. after   12 cycles
 E2(B2PLYPD3) =    -0.2207559648D+00 E(B2PLYPD3) =    -0.15768347589636D+03
 SCF Done:  E(UB2PLYPD3) =  -157.463191024     A.U. after   11 cycles
 E2(B2PLYPD3) =    -0.2208494463D+00 E(B2PLYPD3) =    -0.15768404047058D+03
 SCF Done:  E(UB2PLYPD3) =  -157.463238371     A.U. after    9 cycles
 E2(B2PLYPD3) =    -0.2208394058D+00 E(B2PLYPD3) =    -0.15768407777729D+03
 SCF Done:  E(UB2PLYPD3) =  -157.463250852     A.U. after    9 cycles
 E2(B2PLYPD3) =    -0.2208369707D+00 E(B2PLYPD3) =    -0.15768408782293D+03
 SCF Done:  E(UB2PLYPD3) =  -157.463253820     A.U. after    7 cycles
 E2(B2PLYPD3) =    -0.2208344604D+00 E(B2PLYPD3) =    -0.15768408828024D+03
 SCF Done:  E(UB2PLYPD3) =  -157.463255673     A.U. after    7 cycles
 E2(B2PLYPD3) =    -0.2208332917D+00 E(B2PLYPD3) =    -0.15768408896507D+03
 SCF Done:  E(UB2PLYPD3) =  -157.463260426     A.U. after    9 cycles
 E2(B2PLYPD3) =    -0.2208296122D+00 E(B2PLYPD3) =    -0.15768409003853D+03
 SCF Done:  E(UB2PLYPD3) =  -157.463259635     A.U. after    7 cycles
 E2(B2PLYPD3) =    -0.2208306659D+00 E(B2PLYPD3) =    -0.15768409030097D+03
 SCF Done:  E(UB2PLYPD3) =  -157.463259687     A.U. after    7 cycles
 E2(B2PLYPD3) =    -0.2208307127D+00 E(B2PLYPD3) =    -0.15768409039985D+03
 Optimization completed.
    -- Stationary point found.
 Normal termination of Gaussian 16 at Sat Jun  1 00:18:31 2019.

 ----------------------------------------------------------------------
 #N Geom=AllCheck Guess=TCheck SCRF=Check GenChk UB2PLYPD3(FC)/CC-pVTZ
 Freq
 ----------------------------------------------------------------------

 Structure from the checkpoint file:  "/localscratch/339542/Gau-6829.chk"
 -------------------
 Title Card Required
 -------------------
 Charge =  0 Multiplicity = 2

                         Standard orientation:
 ---------------------------------------------------------------------
 Center     Atomic      Atomic             Coordinates (Angstroms)
 Number     Number       Type             X           Y           Z
 ---------------------------------------------------------------------
      1          6           0        1.878829   -0.132051    0.017732
      2          6           0        0.504728    0.522730   -0.062719
      3          1           0        2.677096    0.605507   -0.051308
      4          1           0        2.001381   -0.669074    0.958751
      5          1           0        2.017693   -0.849249   -0.791723
      6          6           0       -0.637799   -0.489052    0.031151
      7          1           0        0.396641    1.253907    0.741479
      8          1           0        0.412262    1.078188   -0.997616
      9          6           0       -1.987308    0.129691   -0.009287
     10          1           0       -0.541214   -1.227431   -0.770089
     11          1           0       -0.514927   -1.062972    0.962075
     12          1           0       -2.858271   -0.448605   -0.274738
     13          1           0       -2.141359    1.131818    0.361909
 ---------------------------------------------------------------------

 SCF Done:  E(UB2PLYPD3) =  -157.463259687     A.U. after    1 cycles
 E2(B2PLYPD3) =    -0.2208307138D+00 E(B2PLYPD3) =    -0.15768409040089D+03
 E2(B2PLYPD3) =    -0.2208307138D+00 E(B2PLYPD3) =    -0.15768409040089D+03

 The electronic state is 2-A.
 Alpha  occ. eigenvalues --  -10.61304 -10.60957 -10.60654 -10.59853  -0.91591
 Alpha  occ. eigenvalues --   -0.83359  -0.72348  -0.66800  -0.54066  -0.50499
 Alpha  occ. eigenvalues --   -0.49694  -0.46331  -0.43918  -0.40482  -0.39502
 Alpha  occ. eigenvalues --   -0.38744  -0.26181
 Alpha virt. eigenvalues --    0.08290   0.10479   0.11446   0.12467   0.14541
 Alpha virt. eigenvalues --    0.16330   0.17479   0.17741   0.19267   0.23226
 Alpha virt. eigenvalues --    0.24491   0.28264   0.31234   0.33124   0.33847

  Beta  occ. eigenvalues --  -10.61103 -10.60614 -10.59853 -10.59591  -0.90845
  Beta  occ. eigenvalues --   -0.81624  -0.70321  -0.65382  -0.53496  -0.49811
  Beta  occ. eigenvalues --   -0.49325  -0.45198  -0.43351  -0.40033  -0.39050
  Beta  occ. eigenvalues --   -0.38536
  Beta virt. eigenvalues --    0.02360   0.08357   0.10878   0.11520   0.12575
  Beta virt. eigenvalues --    0.14869   0.16465   0.17690   0.17868   0.19361
  Beta virt. eigenvalues --    0.23314   0.24614   0.28447   0.31681   0.33394

 Mulliken charges and spin densities:
               1          2
     1  C   -0.306418   0.001215
     2  C   -0.156385   0.011997
     3  H    0.102727  -0.000324
     4  H    0.091102   0.000266
     5  H    0.092080   0.000079
     6  C   -0.115731  -0.085174
     7  H    0.088583  -0.000691
     8  H    0.094944   0.001884
     9  C   -0.323618   1.088950
    10  H    0.091003   0.016711
    11  H    0.091517   0.054002
    12  H    0.129373  -0.044051
    13  H    0.120821  -0.044864
 Sum of Mulliken charges =   0.00000   1.00000

 Dipole moment (field-independent basis, Debye):
    X=              0.1872    Y=             -0.0893    Z=              0.0864  Tot=              0.2247
 Quadrupole moment (field-independent basis, Debye-Ang):
   XX=            -28.6485   YY=            -27.6341   ZZ=            -28.1602
   XY=              0.4619   XZ=             -0.0692   YZ=              0.5362

  Exact polarizability:  57.474  -0.944  46.655   0.478   0.519  41.984
 Approx polarizability:  53.104  -0.664  52.554   0.507   0.665  49.735

                      1                      2                      3
                      A                      A                      A
 Frequencies --    101.2688               134.9875               241.6500
 Red. masses --      1.1645                 1.7050                 1.0938
 Frc consts  --      0.0070                 0.0183                 0.0376
 IR Inten    --      0.0802                 0.0848                 0.0080

                      4                      5                      6
                      A                      A                      A
 Frequencies --    263.4349               430.3670               485.2179
 Red. masses --      2.1996                 2.3488                 1.3649
 Frc consts  --      0.0899                 0.2563                 0.1893
 IR Inten    --      0.3043                 4.7225                41.4553

                      7                      8                      9
                      A                      A                      A
 Frequencies --    736.4205               831.4813               872.7875
 Red. masses --      1.1190                 1.4515                 1.5137
 Frc consts  --      0.3575                 0.5912                 0.6793
 IR Inten    --      1.2474                 0.5279                 1.9725

                     10                     11                     12
                      A                      A                      A
 Frequencies --    972.9761              1045.6932              1083.7266
 Red. masses --      1.2006                 3.1070                 1.4965
 Frc consts  --      0.6697                 2.0017                 1.0355
 IR Inten    --      1.9905                 0.3066                 0.2995

                     13                     14                     15
                      A                      A                      A
 Frequencies --   1105.2639              1180.3345              1258.8969
 Red. masses --      2.1372                 2.0195                 1.3602
 Frc consts  --      1.5382                 1.6577                 1.2701
 IR Inten    --      0.1872                 0.9602                 0.1037

                     16                     17                     18
                      A                      A                      A
 Frequencies --   1323.0345              1334.8706              1399.9466
 Red. masses --      1.2732                 1.1569                 1.5765
 Frc consts  --      1.3131                 1.2146                 1.8204
 IR Inten    --      1.6473                 0.7751                 0.4889

                     19                     20                     21
                      A                      A                      A
 Frequencies --   1423.2493              1477.4706              1483.5641
 Red. masses --      1.2438                 1.0810                 1.1718
 Frc consts  --      1.4844                 1.3904                 1.5196
 IR Inten    --      2.6354                 2.2332                 0.1677

                     22                     23                     24
                      A                      A                      A
 Frequencies --   1506.0107              1513.5395              1521.2862
 Red. masses --      1.0557                 1.0398                 1.0775
 Frc consts  --      1.4107                 1.4034                 1.4693
 IR Inten    --      0.5919                 6.8817                 4.9067

                     25                     26                     27
                      A                      A                      A
 Frequencies --   2950.2594              3034.2190              3043.5830
 Red. masses --      1.0718                 1.0804                 1.0573
 Frc consts  --      5.4965                 5.8605                 5.7705
 IR Inten    --     27.7582                 5.6892                20.0858

                     28                     29                     30
                      A                      A                      A
 Frequencies --   3046.3089              3076.9078              3112.9231
 Red. masses --      1.0411                 1.1025                 1.1026
 Frc consts  --      5.6924                 6.1497                 6.2952
 IR Inten    --     49.1696                15.2380                54.9878

                     31                     32                     33
                      A                      A                      A
 Frequencies --   3119.4660              3165.4373              3269.0635
 Red. masses --      1.1010                 1.0509                 1.1184
 Frc consts  --      6.3124                 6.2044                 7.0420
 IR Inten    --     36.2733                16.8330                13.6186

 - Thermochemistry -
 -------------------
 Temperature   298.150 Kelvin.  Pressure   1.00000 Atm.
 Atom     1 has atomic number  6 and mass  12.00000

 Molecular mass:    57.07043 amu.
 Principal axes and moments of inertia in atomic units:
                           1         2         3
     Eigenvalues --    71.17995 470.22704 506.33552
           X            0.99999  -0.00377  -0.00009
           Y            0.00377   0.99953   0.03033
           Z           -0.00003  -0.03033   0.99954
 This molecule is an asymmetric top.
 Rotational symmetry number  1.
 Rotational temperatures (Kelvin)      1.21683     0.18420     0.17106
 Rotational constants (GHZ):          25.35463     3.83802     3.56432
 Zero-point vibrational energy     308311.4 (Joules/Mol)
                                   73.68820 (Kcal/Mol)
 Warning -- explicit consideration of   6 degrees of freedom as
           vibrations may cause significant error
 Vibrational temperatures:    145.70   194.22   347.68   379.02   619.20
          (Kelvin)            698.12  1059.54  1196.32  1255.75  1399.90
                             1504.52  1559.24  1590.23  1698.24  1811.27
                             1903.55  1920.58  2014.21  2047.74  2125.75
                             2134.52  2166.81  2177.65  2188.79  4244.77
                             4365.56  4379.04  4382.96  4426.98  4478.80
                             4488.22  4554.36  4703.45

 Zero-point correction=                           0.117430 (Hartree/Particle)
 Thermal correction to Energy=                    0.123588
 Thermal correction to Enthalpy=                  0.124532
 Thermal correction to Gibbs Free Energy=         0.088334
 Sum of electronic and zero-point Energies=           -157.566661
 Sum of electronic and thermal Energies=              -157.560502
 Sum of electronic and thermal Enthalpies=            -157.559558
 Sum of electronic and thermal Free Energies=         -157.595756

                     E (Thermal)             CV                S
                      KCal/Mol        Cal/Mol-Kelvin    Cal/Mol-Kelvin
 Total                   77.553             20.474             76.185
 Electronic               0.000              0.000              1.377
 Translational            0.889              2.981             38.046
 Rotational               0.889              2.981             24.342
 Vibrational             75.775             14.513             12.420
 Vibration     1          0.604              1.948              3.430
 Vibration     2          0.613              1.918              2.874
 Vibration     3          0.658              1.777              1.791
 Vibration     4          0.670              1.740              1.639
 Vibration     5          0.792              1.404              0.857
 Vibration     6          0.841              1.283              0.696

 Optimization completed.
    -- Stationary point found.
 Normal termination of Gaussian 16 at Sat Jun  1 00:37:56 2019.
