 Gaussian 16, Revision B.01,
 Gaussian 16:  ES64L-G16RevB.01 20-Dec-2017

 ----------------------------------------------------------------------
 # opt=(maxcyc=500,modredundant) uB2PLYPD3/cc-pvtz scf=maxcyc=500 nosym
 m
 ----------------------------------------------------------------------

 -------------------
 Title Card Required
 -------------------
 Symbolic Z-matrix:
 Charge =  0 Multiplicity = 1

 SCF Done:  E(UB2PLYPD3) =  -158.114086563     A.U. after   10 cycles
 E2(B2PLYPD3) =    -0.2344231095D+00 E(B2PLYPD3) =    -0.15834850967215D+03
 SCF Done:  E(UB2PLYPD3) =  -158.120795762     A.U. after    9 cycles
 E2(B2PLYPD3) =    -0.2332011236D+00 E(B2PLYPD3) =    -0.15835399688588D+03
 SCF Done:  E(UB2PLYPD3) =  -158.120917039     A.U. after    8 cycles
 E2(B2PLYPD3) =    -0.2331518313D+00 E(B2PLYPD3) =    -0.15835406887027D+03
 SCF Done:  E(UB2PLYPD3) =  -158.120900256     A.U. after    6 cycles
 E2(B2PLYPD3) =    -0.2331727118D+00 E(B2PLYPD3) =    -0.15835407296790D+03
 Optimization completed.
    -- Stationary point found.
 SCF Done:  E(UB2PLYPD3) =  -158.120595647     A.U. after    8 cycles
 E2(B2PLYPD3) =    -0.2331844794D+00 E(B2PLYPD3) =    -0.15835378012614D+03
 SCF Done:  E(UB2PLYPD3) =  -158.120647356     A.U. after    7 cycles
 E2(B2PLYPD3) =    -0.2331760683D+00 E(B2PLYPD3) =    -0.15835382342423D+03
 SCF Done:  E(UB2PLYPD3) =  -158.120647927     A.U. after    6 cycles
 E2(B2PLYPD3) =    -0.2331786036D+00 E(B2PLYPD3) =    -0.15835382653068D+03
 SCF Done:  E(UB2PLYPD3) =  -158.120648474     A.U. after    6 cycles
 E2(B2PLYPD3) =    -0.2331782783D+00 E(B2PLYPD3) =    -0.15835382675192D+03
 SCF Done:  E(UB2PLYPD3) =  -158.120648811     A.U. after    5 cycles
 E2(B2PLYPD3) =    -0.2331780108D+00 E(B2PLYPD3) =    -0.15835382682189D+03
 Optimization completed.
 SCF Done:  E(UB2PLYPD3) =  -158.119837231     A.U. after    8 cycles
 E2(B2PLYPD3) =    -0.2332027215D+00 E(B2PLYPD3) =    -0.15835303995237D+03
 E2(B2PLYPD3) =    -0.2332012549D+00 E(B2PLYPD3) =    -0.15835307583865D+03
 E2(B2PLYPD3) =    -0.2332008142D+00 E(B2PLYPD3) =    -0.15835307607429D+03
 E2(B2PLYPD3) =    -0.2332315425D+00 E(B2PLYPD3) =    -0.15835195165013D+03
 E2(B2PLYPD3) =    -0.2332322901D+00 E(B2PLYPD3) =    -0.15835197368912D+03
 E2(B2PLYPD3) =    -0.2332598567D+00 E(B2PLYPD3) =    -0.15835076088900D+03
 E2(B2PLYPD3) =    -0.2332601097D+00 E(B2PLYPD3) =    -0.15835077655608D+03
 E2(B2PLYPD3) =    -0.2332787767D+00 E(B2PLYPD3) =    -0.15834978820350D+03
 E2(B2PLYPD3) =    -0.2332774588D+00 E(B2PLYPD3) =    -0.15834981487016D+03
 E2(B2PLYPD3) =    -0.2332781168D+00 E(B2PLYPD3) =    -0.15834981536063D+03
 E2(B2PLYPD3) =    -0.2332853000D+00 E(B2PLYPD3) =    -0.15834936076939D+03
 E2(B2PLYPD3) =    -0.2332455358D+00 E(B2PLYPD3) =    -0.15835071799500D+03
 E2(B2PLYPD3) =    -0.2332628000D+00 E(B2PLYPD3) =    -0.15834974548174D+03
 E2(B2PLYPD3) =    -0.2332686577D+00 E(B2PLYPD3) =    -0.15834977559154D+03
 E2(B2PLYPD3) =    -0.2332689778D+00 E(B2PLYPD3) =    -0.15834977598218D+03
 E2(B2PLYPD3) =    -0.2332754691D+00 E(B2PLYPD3) =    -0.15834935837243D+03
 E2(B2PLYPD3) =    -0.2332852398D+00 E(B2PLYPD3) =    -0.15834940640586D+03
 E2(B2PLYPD3) =    -0.2332860367D+00 E(B2PLYPD3) =    -0.15834940685297D+03
 E2(B2PLYPD3) =    -0.2332821755D+00 E(B2PLYPD3) =    -0.15834969496618D+03
 E2(B2PLYPD3) =    -0.2332957782D+00 E(B2PLYPD3) =    -0.15834974324869D+03
 E2(B2PLYPD3) =    -0.2332804481D+00 E(B2PLYPD3) =    -0.15835063013983D+03
 SCF Done:  E(UB2PLYPD3) =  -158.117368557     A.U. after    8 cycles
 E2(B2PLYPD3) =    -0.2332907748D+00 E(B2PLYPD3) =    -0.15835065933203D+03
 SCF Done:  E(UB2PLYPD3) =  -158.118567548     A.U. after    9 cycles
 E2(B2PLYPD3) =    -0.2332646029D+00 E(B2PLYPD3) =    -0.15835183215136D+03
 SCF Done:  E(UB2PLYPD3) =  -158.118581799     A.U. after    7 cycles
 E2(B2PLYPD3) =    -0.2332661753D+00 E(B2PLYPD3) =    -0.15835184797385D+03
 SCF Done:  E(UB2PLYPD3) =  -158.119716718     A.U. after    8 cycles
 E2(B2PLYPD3) =    -0.2332358507D+00 E(B2PLYPD3) =    -0.15835295256841D+03
 SCF Done:  E(UB2PLYPD3) =  -158.119744478     A.U. after    7 cycles
 E2(B2PLYPD3) =    -0.2332286483D+00 E(B2PLYPD3) =    -0.15835297312663D+03
 SCF Done:  E(UB2PLYPD3) =  -158.119743993     A.U. after    5 cycles
 E2(B2PLYPD3) =    -0.2332294100D+00 E(B2PLYPD3) =    -0.15835297340278D+03
 SCF Done:  E(UB2PLYPD3) =  -158.120530148     A.U. after    8 cycles
 E2(B2PLYPD3) =    -0.2332045712D+00 E(B2PLYPD3) =    -0.15835373471957D+03
 SCF Done:  E(UB2PLYPD3) =  -158.120576232     A.U. after    7 cycles
 E2(B2PLYPD3) =    -0.2331936588D+00 E(B2PLYPD3) =    -0.15835376989066D+03
    -- Stationary point found.
 SCF Done:  E(UB2PLYPD3) =  -158.120843234     A.U. after    9 cycles
 E2(B2PLYPD3) =    -0.2331845768D+00 E(B2PLYPD3) =    -0.15835402781123D+03
 SCF Done:  E(UB2PLYPD3) =  -158.120900045     A.U. after    7 cycles
 E2(B2PLYPD3) =    -0.2331740704D+00 E(B2PLYPD3) =    -0.15835407411494D+03
 Optimization completed.
    -- Stationary point found.

                          Input orientation:
 ---------------------------------------------------------------------
 Center     Atomic      Atomic             Coordinates (Angstroms)
 Number     Number       Type             X           Y           Z
 ---------------------------------------------------------------------
      1          6           0       -1.458700    0.408712    0.175973
      2          6           0       -0.004993    0.146282    0.555321
      3          1           0       -2.003021    0.894082    0.984989
      4          1           0       -1.523331    1.051856   -0.702058
      5          1           0       -1.974314   -0.522695   -0.059714
      6          6           0        0.783778   -0.544730   -0.552868
      7          1           0        0.485172    1.089868    0.807201
      8          1           0        0.034076   -0.467959    1.458191
      9          6           0        2.237744   -0.804761   -0.174269
     10          1           0        0.294970   -1.489216   -0.804076
     11          1           0        0.743461    0.068635   -1.456353
     12          1           0        2.779930   -1.298415   -0.979726
     13          1           0        2.754654    0.128214    0.052208
     14          1           0        2.303036   -1.440146    0.709445
 ---------------------------------------------------------------------

 Alpha  occ. eigenvalues --  -10.60307 -10.60266 -10.59637 -10.59636  -0.91025
 Alpha  occ. eigenvalues --   -0.83144  -0.72705  -0.66510  -0.54089  -0.49321
 Alpha  occ. eigenvalues --   -0.48535  -0.47709  -0.43017  -0.41123  -0.39098
 Alpha  occ. eigenvalues --   -0.38106  -0.37894
 Alpha virt. eigenvalues --    0.08073   0.09860   0.11832   0.11910   0.15066
 Alpha virt. eigenvalues --    0.16042   0.16850   0.18035   0.18530   0.19594
 Alpha virt. eigenvalues --    0.23545   0.24119   0.27728   0.30379   0.31950

  Beta  occ. eigenvalues --  -10.60307 -10.60266 -10.59637 -10.59636  -0.91025
  Beta  occ. eigenvalues --   -0.83144  -0.72705  -0.66510  -0.54089  -0.49321
  Beta  occ. eigenvalues --   -0.48535  -0.47709  -0.43017  -0.41123  -0.39098
  Beta  occ. eigenvalues --   -0.38106  -0.37894
  Beta virt. eigenvalues --    0.08073   0.09860   0.11832   0.11910   0.15066
  Beta virt. eigenvalues --    0.16042   0.16850   0.18035   0.18530   0.19594
  Beta virt. eigenvalues --    0.23545   0.24119   0.27728   0.30379   0.31950

 Mulliken charges and spin densities:
               1          2
     1  C   -0.306308  -0.000000
     2  C   -0.151682   0.000000
     3  H    0.101211   0.000000
     4  H    0.091444  -0.000000
     5  H    0.091213  -0.000000
     6  C   -0.151602  -0.000000
     7  H    0.087034  -0.000000
     8  H    0.087089  -0.000000
     9  C   -0.306227   0.000000
    10  H    0.087065   0.000000
    11  H    0.087000  -0.000000
    12  H    0.101200   0.000000
    13  H    0.091282   0.000000
    14  H    0.091281  -0.000000
 Sum of Mulliken charges =  -0.00000  -0.00000

 Dipole moment (field-independent basis, Debye):
    X=             -0.0001    Y=             -0.0002    Z=             -0.0001  Tot=              0.0002
 Quadrupole moment (field-independent basis, Debye-Ang):
   XX=            -29.5623   YY=            -28.2662   ZZ=            -28.6353
   XY=              0.3126   XZ=             -0.2532   YZ=             -0.1466

 Normal termination of Gaussian 16 at Sat Jun  1 05:57:58 2019.
