 Gaussian 16, Revision B.01,
 Gaussian 16:  ES64L-G16RevB.01 20-Dec-2017

 ----------------------------------------------------------------------
 # opt=(maxcyc=500,modredundant) uB2PLYPD3/cc-pvtz scf=maxcyc=500 nosym
 m
 ----------------------------------------------------------------------

 -------------------
 Title Card Required
 -------------------
 Symbolic Z-matrix:
 Charge =  0 Multiplicity = 1

 SCF Done:  E(UB2PLYPD3) =  -158.114086563     A.U. after   10 cycles
 E2(B2PLYPD3) =    -0.2344231095D+00 E(B2PLYPD3) =    -0.15834850967215D+03
 SCF Done:  E(UB2PLYPD3) =  -158.120781400     A.U. after    9 cycles
 E2(B2PLYPD3) =    -0.2332050557D+00 E(B2PLYPD3) =    -0.15835398645594D+03
 SCF Done:  E(UB2PLYPD3) =  -158.120919184     A.U. after    8 cycles
 E2(B2PLYPD3) =    -0.2331497844D+00 E(B2PLYPD3) =    -0.15835406896880D+03
 SCF Done:  E(UB2PLYPD3) =  -158.120901103     A.U. after    6 cycles
 E2(B2PLYPD3) =    -0.2331725455D+00 E(B2PLYPD3) =    -0.15835407364808D+03
 SCF Done:  E(UB2PLYPD3) =  -158.120899648     A.U. after    5 cycles
 E2(B2PLYPD3) =    -0.2331743383D+00 E(B2PLYPD3) =    -0.15835407398638D+03
 Optimization completed.
    -- Stationary point found.
 SCF Done:  E(UB2PLYPD3) =  -158.120524370     A.U. after    8 cycles
 E2(B2PLYPD3) =    -0.2331908217D+00 E(B2PLYPD3) =    -0.15835371519130D+03
 SCF Done:  E(UB2PLYPD3) =  -158.120560599     A.U. after    7 cycles
 E2(B2PLYPD3) =    -0.2331882583D+00 E(B2PLYPD3) =    -0.15835374885689D+03
 SCF Done:  E(UB2PLYPD3) =  -158.120563330     A.U. after    6 cycles
 E2(B2PLYPD3) =    -0.2331888106D+00 E(B2PLYPD3) =    -0.15835375214019D+03
 SCF Done:  E(UB2PLYPD3) =  -158.120563804     A.U. after    6 cycles
 E2(B2PLYPD3) =    -0.2331893488D+00 E(B2PLYPD3) =    -0.15835375315280D+03
 SCF Done:  E(UB2PLYPD3) =  -158.120563619     A.U. after    6 cycles
 E2(B2PLYPD3) =    -0.2331897448D+00 E(B2PLYPD3) =    -0.15835375336344D+03
 Optimization completed.
 E2(B2PLYPD3) =    -0.2332291240D+00 E(B2PLYPD3) =    -0.15835282384968D+03
 E2(B2PLYPD3) =    -0.2332268010D+00 E(B2PLYPD3) =    -0.15835285443548D+03
 E2(B2PLYPD3) =    -0.2332721114D+00 E(B2PLYPD3) =    -0.15835155538012D+03
 E2(B2PLYPD3) =    -0.2332683437D+00 E(B2PLYPD3) =    -0.15835157774610D+03
 E2(B2PLYPD3) =    -0.2333066090D+00 E(B2PLYPD3) =    -0.15835021985175D+03
 E2(B2PLYPD3) =    -0.2333006151D+00 E(B2PLYPD3) =    -0.15835024024789D+03
 E2(B2PLYPD3) =    -0.2333280907D+00 E(B2PLYPD3) =    -0.15834918430821D+03
 E2(B2PLYPD3) =    -0.2333208491D+00 E(B2PLYPD3) =    -0.15834921084230D+03
 E2(B2PLYPD3) =    -0.2333410940D+00 E(B2PLYPD3) =    -0.15834876678313D+03
 E2(B2PLYPD3) =    -0.2333357103D+00 E(B2PLYPD3) =    -0.15834880145985D+03
 E2(B2PLYPD3) =    -0.2333785423D+00 E(B2PLYPD3) =    -0.15835010223973D+03
 E2(B2PLYPD3) =    -0.2333576246D+00 E(B2PLYPD3) =    -0.15834911079744D+03
 E2(B2PLYPD3) =    -0.2333528887D+00 E(B2PLYPD3) =    -0.15834913941330D+03
 E2(B2PLYPD3) =    -0.2333376639D+00 E(B2PLYPD3) =    -0.15834876421629D+03
 E2(B2PLYPD3) =    -0.2333351819D+00 E(B2PLYPD3) =    -0.15834880073642D+03
 E2(B2PLYPD3) =    -0.2333364834D+00 E(B2PLYPD3) =    -0.15834880100183D+03
 E2(B2PLYPD3) =    -0.2333186358D+00 E(B2PLYPD3) =    -0.15834917740785D+03
 E2(B2PLYPD3) =    -0.2333198498D+00 E(B2PLYPD3) =    -0.15834921142451D+03
 E2(B2PLYPD3) =    -0.2333219645D+00 E(B2PLYPD3) =    -0.15834921164496D+03
 E2(B2PLYPD3) =    -0.2332960107D+00 E(B2PLYPD3) =    -0.15835021387656D+03
 SCF Done:  E(UB2PLYPD3) =  -158.116938463     A.U. after    7 cycles
 E2(B2PLYPD3) =    -0.2333011085D+00 E(B2PLYPD3) =    -0.15835023957147D+03
 SCF Done:  E(UB2PLYPD3) =  -158.118292583     A.U. after    9 cycles
 E2(B2PLYPD3) =    -0.2332640890D+00 E(B2PLYPD3) =    -0.15835155667214D+03
 SCF Done:  E(UB2PLYPD3) =  -158.118307868     A.U. after    7 cycles
 E2(B2PLYPD3) =    -0.2332685775D+00 E(B2PLYPD3) =    -0.15835157644530D+03
 SCF Done:  E(UB2PLYPD3) =  -158.119607141     A.U. after    8 cycles
 E2(B2PLYPD3) =    -0.2332241504D+00 E(B2PLYPD3) =    -0.15835283129177D+03
 SCF Done:  E(UB2PLYPD3) =  -158.119626153     A.U. after    7 cycles
 E2(B2PLYPD3) =    -0.2332269939D+00 E(B2PLYPD3) =    -0.15835285314695D+03
 SCF Done:  E(UB2PLYPD3) =  -158.120532934     A.U. after    8 cycles
 E2(B2PLYPD3) =    -0.2331883962D+00 E(B2PLYPD3) =    -0.15835372132988D+03
 SCF Done:  E(UB2PLYPD3) =  -158.120562390     A.U. after    7 cycles
 E2(B2PLYPD3) =    -0.2331894106D+00 E(B2PLYPD3) =    -0.15835375180034D+03
    -- Stationary point found.
 SCF Done:  E(UB2PLYPD3) =  -158.120860884     A.U. after    8 cycles
 E2(B2PLYPD3) =    -0.2331741066D+00 E(B2PLYPD3) =    -0.15835403499060D+03
 SCF Done:  E(UB2PLYPD3) =  -158.120899810     A.U. after    7 cycles
 E2(B2PLYPD3) =    -0.2331736284D+00 E(B2PLYPD3) =    -0.15835407343871D+03
 SCF Done:  E(UB2PLYPD3) =  -158.120899630     A.U. after    5 cycles
 E2(B2PLYPD3) =    -0.2331739788D+00 E(B2PLYPD3) =    -0.15835407360846D+03
 Optimization completed.
    -- Stationary point found.

                          Input orientation:
 ---------------------------------------------------------------------
 Center     Atomic      Atomic             Coordinates (Angstroms)
 Number     Number       Type             X           Y           Z
 ---------------------------------------------------------------------
      1          6           0       -0.533963    1.522247    0.003678
      2          6           0       -0.344487    0.009281    0.000932
      3          1           0       -1.588616    1.794512    0.003149
      4          1           0       -0.074578    1.971300    0.884724
      5          1           0       -0.072842    1.974701   -0.874725
      6          6           0        1.123412   -0.406454    0.001097
      7          1           0       -0.839006   -0.424569    0.873479
      8          1           0       -0.837771   -0.421224   -0.873962
      9          6           0        1.312877   -1.919441   -0.001585
     10          1           0        1.617840    0.027306   -0.871543
     11          1           0        1.616816    0.024097    0.875902
     12          1           0        2.367535   -2.191676   -0.001721
     13          1           0        0.852307   -2.371792    0.877152
     14          1           0        0.852937   -2.368560   -0.882311
 ---------------------------------------------------------------------

 Alpha  occ. eigenvalues --  -10.60305 -10.60265 -10.59636 -10.59636  -0.91029
 Alpha  occ. eigenvalues --   -0.83147  -0.72703  -0.66510  -0.54090  -0.49323
 Alpha  occ. eigenvalues --   -0.48537  -0.47709  -0.43016  -0.41120  -0.39101
 Alpha  occ. eigenvalues --   -0.38104  -0.37894
 Alpha virt. eigenvalues --    0.08073   0.09860   0.11830   0.11909   0.15066
 Alpha virt. eigenvalues --    0.16042   0.16851   0.18037   0.18528   0.19595
 Alpha virt. eigenvalues --    0.23546   0.24121   0.27730   0.30378   0.31952

  Beta  occ. eigenvalues --  -10.60305 -10.60265 -10.59636 -10.59636  -0.91029
  Beta  occ. eigenvalues --   -0.83147  -0.72703  -0.66510  -0.54090  -0.49323
  Beta  occ. eigenvalues --   -0.48537  -0.47709  -0.43016  -0.41120  -0.39101
  Beta  occ. eigenvalues --   -0.38104  -0.37894
  Beta virt. eigenvalues --    0.08073   0.09860   0.11830   0.11909   0.15066
  Beta virt. eigenvalues --    0.16042   0.16851   0.18037   0.18528   0.19595
  Beta virt. eigenvalues --    0.23546   0.24121   0.27730   0.30378   0.31952

 Mulliken charges and spin densities:
               1          2
     1  C   -0.306233  -0.000000
     2  C   -0.151596   0.000000
     3  H    0.101199   0.000000
     4  H    0.091291   0.000000
     5  H    0.091281   0.000000
     6  C   -0.151602  -0.000000
     7  H    0.087029   0.000000
     8  H    0.087031  -0.000000
     9  C   -0.306232   0.000000
    10  H    0.087031   0.000000
    11  H    0.087030  -0.000000
    12  H    0.101199   0.000000
    13  H    0.091291  -0.000000
    14  H    0.091282   0.000000
 Sum of Mulliken charges =  -0.00000  -0.00000

 Dipole moment (field-independent basis, Debye):
    X=              0.0000    Y=              0.0000    Z=             -0.0000  Tot=              0.0000
 Quadrupole moment (field-independent basis, Debye-Ang):
   XX=            -28.6998   YY=            -29.6509   ZZ=            -28.1141
   XY=              0.1699   XZ=             -0.0001   YZ=             -0.0028

 Normal termination of Gaussian 16 at Sat Jun  1 09:37:36 2019.
