 Gaussian 16, Revision B.01,
 Gaussian 16:  ES64L-G16RevB.01 20-Dec-2017

 -----------------------------------------------
 # opt=maxcyc=500 freq=noraman uB2PLYPD3/cc-pvtz
 -----------------------------------------------

 -------------------
 Title Card Required
 -------------------
 Symbolic Z-matrix:
 Charge =  0 Multiplicity = 1

 SCF Done:  E(UB2PLYPD3) =  -158.114086638     A.U. after   10 cycles
 E2(B2PLYPD3) =    -0.2344231135D+00 E(B2PLYPD3) =    -0.15834850975191D+03
 SCF Done:  E(UB2PLYPD3) =  -158.120793585     A.U. after    9 cycles
 E2(B2PLYPD3) =    -0.2332043190D+00 E(B2PLYPD3) =    -0.15835399790429D+03
 SCF Done:  E(UB2PLYPD3) =  -158.120917638     A.U. after    8 cycles
 E2(B2PLYPD3) =    -0.2331520776D+00 E(B2PLYPD3) =    -0.15835406971546D+03
 SCF Done:  E(UB2PLYPD3) =  -158.120901111     A.U. after    6 cycles
 E2(B2PLYPD3) =    -0.2331725673D+00 E(B2PLYPD3) =    -0.15835407367833D+03
 SCF Done:  E(UB2PLYPD3) =  -158.120899644     A.U. after    5 cycles
 E2(B2PLYPD3) =    -0.2331743191D+00 E(B2PLYPD3) =    -0.15835407396341D+03
 Optimization completed.
    -- Stationary point found.
 Normal termination of Gaussian 16 at Fri May 31 23:36:14 2019.

 ----------------------------------------------------------------------
 #N Geom=AllCheck Guess=TCheck SCRF=Check GenChk UB2PLYPD3(FC)/CC-pVTZ
 Freq
 ----------------------------------------------------------------------

 Structure from the checkpoint file:  "/localscratch/339542/Gau-53896.chk"
 -------------------
 Title Card Required
 -------------------
 Charge =  0 Multiplicity = 1

                         Standard orientation:
 ---------------------------------------------------------------------
 Center     Atomic      Atomic             Coordinates (Angstroms)
 Number     Number       Type             X           Y           Z
 ---------------------------------------------------------------------
      1          6           0        1.949270    0.119857   -0.000061
      2          6           0        0.562874   -0.514885    0.000070
      3          1           0        2.735629   -0.633831   -0.001395
      4          1           0        2.089891    0.749383   -0.879183
      5          1           0        2.091007    0.747424    0.880274
      6          6           0       -0.562875    0.514889    0.000068
      7          1           0        0.455039   -1.162388   -0.873567
      8          1           0        0.455176   -1.162229    0.873843
      9          6           0       -1.949270   -0.119849   -0.000061
     10          1           0       -0.455163    1.162220    0.873837
     11          1           0       -0.455016    1.162306   -0.873618
     12          1           0       -2.735635    0.633837    0.000112
     13          1           0       -2.090462   -0.748205   -0.879925
     14          1           0       -2.090457   -0.748589    0.879529
 ---------------------------------------------------------------------

 SCF Done:  E(UB2PLYPD3) =  -158.120899644     A.U. after    1 cycles
 E2(B2PLYPD3) =    -0.2331743138D+00 E(B2PLYPD3) =    -0.15835407395817D+03
 E2(B2PLYPD3) =    -0.2331743138D+00 E(B2PLYPD3) =    -0.15835407395817D+03

 The electronic state is 1-A.
 Alpha  occ. eigenvalues --  -10.60306 -10.60266 -10.59636 -10.59636  -0.91028
 Alpha  occ. eigenvalues --   -0.83147  -0.72703  -0.66510  -0.54089  -0.49323
 Alpha  occ. eigenvalues --   -0.48538  -0.47709  -0.43015  -0.41120  -0.39102
 Alpha  occ. eigenvalues --   -0.38104  -0.37894
 Alpha virt. eigenvalues --    0.08073   0.09860   0.11830   0.11909   0.15066
 Alpha virt. eigenvalues --    0.16042   0.16851   0.18036   0.18529   0.19595
 Alpha virt. eigenvalues --    0.23545   0.24121   0.27729   0.30377   0.31952

  Beta  occ. eigenvalues --  -10.60306 -10.60266 -10.59636 -10.59636  -0.91028
  Beta  occ. eigenvalues --   -0.83147  -0.72703  -0.66510  -0.54089  -0.49323
  Beta  occ. eigenvalues --   -0.48538  -0.47709  -0.43015  -0.41120  -0.39102
  Beta  occ. eigenvalues --   -0.38104  -0.37894
  Beta virt. eigenvalues --    0.08073   0.09860   0.11830   0.11909   0.15066
  Beta virt. eigenvalues --    0.16042   0.16851   0.18036   0.18529   0.19595
  Beta virt. eigenvalues --    0.23545   0.24121   0.27729   0.30377   0.31952

 Mulliken charges and spin densities:
               1          2
     1  C   -0.306234  -0.000000
     2  C   -0.151604   0.000000
     3  H    0.101203   0.000000
     4  H    0.091273   0.000000
     5  H    0.091304  -0.000000
     6  C   -0.151603  -0.000000
     7  H    0.087024  -0.000000
     8  H    0.087030  -0.000000
     9  C   -0.306236   0.000000
    10  H    0.087032   0.000000
    11  H    0.087031  -0.000000
    12  H    0.101202  -0.000000
    13  H    0.091289  -0.000000
    14  H    0.091288   0.000000
 Sum of Mulliken charges =   0.00000  -0.00000

 Dipole moment (field-independent basis, Debye):
    X=             -0.0000    Y=             -0.0000    Z=              0.0000  Tot=              0.0000
 Quadrupole moment (field-independent basis, Debye-Ang):
   XX=            -29.5396   YY=            -28.8109   ZZ=            -28.1142
   XY=             -0.3496   XZ=             -0.0000   YZ=              0.0001

  Exact polarizability:  58.149   0.363  47.888  -0.000   0.000  45.701
 Approx polarizability:  54.173   0.057  54.424   0.000  -0.000  54.233

                      1                      2                      3
                      A                      A                      A
 Frequencies --    119.7993               224.3711               258.9347
 Red. masses --      1.9124                 1.0624                 2.2456
 Frc consts  --      0.0162                 0.0315                 0.0887
 IR Inten    --      0.0135                 0.0002                 0.0148

                      4                      5                      6
                      A                      A                      A
 Frequencies --    261.4277               427.3826               742.2278
 Red. masses --      1.1217                 2.7156                 1.0703
 Frc consts  --      0.0452                 0.2922                 0.3474
 IR Inten    --      0.0000                 0.0000                 3.0674

                      7                      8                      9
                      A                      A                      A
 Frequencies --    817.1001               850.6040               968.5379
 Red. masses --      1.1239                 1.9626                 1.1186
 Frc consts  --      0.4421                 0.8366                 0.6182
 IR Inten    --      0.0000                 0.0000                 0.7933

                     10                     11                     12
                      A                      A                      A
 Frequencies --    987.1246              1030.4181              1079.6993
 Red. masses --      1.2953                 2.9371                 2.3530
 Frc consts  --      0.7436                 1.8373                 1.6162
 IR Inten    --      5.1815                 0.0134                 0.0000

                     13                     14                     15
                      A                      A                      A
 Frequencies --   1181.0432              1220.7773              1300.1767
 Red. masses --      2.0645                 1.7521                 1.2488
 Frc consts  --      1.6966                 1.5384                 1.2438
 IR Inten    --      0.0000                 0.0000                 0.2088

                     16                     17                     18
                      A                      A                      A
 Frequencies --   1332.7320              1342.6446              1404.2552
 Red. masses --      1.3521                 1.0704                 1.5824
 Frc consts  --      1.4150                 1.1369                 1.8385
 IR Inten    --      2.6718                 0.0000                 0.0000

                     19                     20                     21
                      A                      A                      A
 Frequencies --   1421.8560              1424.0497              1499.7830
 Red. masses --      1.2346                 1.2472                 1.0631
 Frc consts  --      1.4705                 1.4901                 1.4089
 IR Inten    --      0.0000                 4.9841                 0.0000

                     22                     23                     24
                      A                      A                      A
 Frequencies --   1505.1497              1513.1189              1514.7108
 Red. masses --      1.0503                 1.0435                 1.0360
 Frc consts  --      1.4020                 1.4077                 1.4004
 IR Inten    --      1.5728                 0.0000                13.4902

                     25                     26                     27
                      A                      A                      A
 Frequencies --   1518.9645              1525.4133              3029.0067
 Red. masses --      1.0631                 1.0868                 1.0582
 Frc consts  --      1.4452                 1.4900                 5.7202
 IR Inten    --      0.0000                 7.7903                 0.0008

                     28                     29                     30
                      A                      A                      A
 Frequencies --   3037.2619              3045.1594              3045.5626
 Red. masses --      1.0584                 1.0366                 1.0357
 Frc consts  --      5.7528                 5.6637                 5.6601
 IR Inten    --     40.3819                82.2684                 0.0083

                     31                     32                     33
                      A                      A                      A
 Frequencies --   3051.9685              3074.5031              3109.8115
 Red. masses --      1.1005                 1.1043                 1.1025
 Frc consts  --      6.0394                 6.1502                 6.2819
 IR Inten    --      0.0002                19.9603                 0.0002

                     34                     35                     36
                      A                      A                      A
 Frequencies --   3113.6848              3116.9460              3117.7406
 Red. masses --      1.1023                 1.1013                 1.1009
 Frc consts  --      6.2967                 6.3041                 6.3052
 IR Inten    --    109.2839                 0.0092                75.8881

 - Thermochemistry -
 -------------------
 Temperature   298.150 Kelvin.  Pressure   1.00000 Atm.
 Atom     1 has atomic number  6 and mass  12.00000

 Molecular mass:    58.07825 amu.
 Principal axes and moments of inertia in atomic units:
                           1         2         3
     Eigenvalues --    76.47258 494.70991 526.92038
           X            0.99998   0.00571  -0.00000
           Y           -0.00571   0.99998   0.00000
           Z            0.00000  -0.00000   1.00000
 This molecule is an asymmetric top.
 Rotational symmetry number  1.
 Rotational temperatures (Kelvin)      1.13261     0.17508     0.16438
 Rotational constants (GHZ):          23.59985     3.64808     3.42507
 Zero-point vibrational energy     348196.7 (Joules/Mol)
                                   83.22102 (Kcal/Mol)
 Warning -- explicit consideration of   5 degrees of freedom as
           vibrations may cause significant error
 Vibrational temperatures:    172.36   322.82   372.55   376.14   614.91
          (Kelvin)           1067.90  1175.62  1223.83  1393.51  1420.25
                             1482.54  1553.45  1699.26  1756.43  1870.66
                             1917.50  1931.77  2020.41  2045.73  2048.89
                             2157.85  2165.57  2177.04  2179.33  2185.45
                             2194.73  4358.07  4369.94  4381.31  4381.89
                             4391.10  4423.52  4474.33  4479.90  4484.59
                             4485.73

 Zero-point correction=                           0.132621 (Hartree/Particle)
 Thermal correction to Energy=                    0.138391
 Thermal correction to Enthalpy=                  0.139335
 Thermal correction to Gibbs Free Energy=         0.104618
 Sum of electronic and zero-point Energies=           -158.221453
 Sum of electronic and thermal Energies=              -158.215683
 Sum of electronic and thermal Enthalpies=            -158.214739
 Sum of electronic and thermal Free Energies=         -158.249456

                     E (Thermal)             CV                S
                      KCal/Mol        Cal/Mol-Kelvin    Cal/Mol-Kelvin
 Total                   86.842             19.542             73.070
 Electronic               0.000              0.000              0.000
 Translational            0.889              2.981             38.098
 Rotational               0.889              2.981             24.503
 Vibrational             85.064             13.580             10.468
 Vibration     1          0.609              1.933              3.104
 Vibration     2          0.649              1.804              1.924
 Vibration     3          0.668              1.748              1.669
 Vibration     4          0.669              1.743              1.652
 Vibration     5          0.789              1.411              0.867

                           ! Non-Optimized Parameters !
 Normal termination of Gaussian 16 at Fri May 31 23:59:47 2019.
