 Gaussian 16, Revision B.01,
 Gaussian 16:  ES64L-G16RevB.01 20-Dec-2017

 -------------------------------------------------------------
 # opt=maxcyc=500 freq=noraman uB2PLYPD3/cc-pvtz int=superfine
 -------------------------------------------------------------

 -------------------
 Title Card Required
 -------------------
 Symbolic Z-matrix:
 Charge =  0 Multiplicity = 2

 SCF Done:  E(UB2PLYPD3) =  -154.106069510     A.U. after   14 cycles
 E2(B2PLYPD3) =    -0.1822590156D+00 E(B2PLYPD3) =    -0.15428832852518D+03
 SCF Done:  E(UB2PLYPD3) =  -154.114701311     A.U. after   13 cycles
 E2(B2PLYPD3) =    -0.1819244324D+00 E(B2PLYPD3) =    -0.15429662574322D+03
 SCF Done:  E(UB2PLYPD3) =  -154.117235200     A.U. after   13 cycles
 E2(B2PLYPD3) =    -0.1820083598D+00 E(B2PLYPD3) =    -0.15429924355940D+03
 SCF Done:  E(UB2PLYPD3) =  -154.117326086     A.U. after   11 cycles
 E2(B2PLYPD3) =    -0.1820997269D+00 E(B2PLYPD3) =    -0.15429942581312D+03
 SCF Done:  E(UB2PLYPD3) =  -154.117321041     A.U. after    9 cycles
 E2(B2PLYPD3) =    -0.1821304923D+00 E(B2PLYPD3) =    -0.15429945153290D+03
 SCF Done:  E(UB2PLYPD3) =  -154.117335229     A.U. after    8 cycles
 E2(B2PLYPD3) =    -0.1821203538D+00 E(B2PLYPD3) =    -0.15429945558262D+03
 Optimization completed.
    -- Stationary point found.
 Normal termination of Gaussian 16 at Fri Aug  2 14:09:37 2019.

 ----------------------------------------------------------------------
 #N Geom=AllCheck Guess=TCheck SCRF=Check GenChk UB2PLYPD3(FC)/CC-pVTZ
 Freq
 ----------------------------------------------------------------------

 Structure from the checkpoint file:  "/localscratch/388704/Gau-40640.chk"
 -------------------
 Title Card Required
 -------------------
 Charge =  0 Multiplicity = 2

                         Standard orientation:
 ---------------------------------------------------------------------
 Center     Atomic      Atomic             Coordinates (Angstroms)
 Number     Number       Type             X           Y           Z
 ---------------------------------------------------------------------
      1          6           0        1.268819   -0.191746    0.000015
      2          6           0       -0.023067    0.536022   -0.000182
      3          8           0       -1.095049   -0.424445    0.000180
      4          1           0        1.696206   -0.543288   -0.925317
      5          1           0        1.697114   -0.541335    0.925663
      6          1           0       -0.092635    1.174691    0.884522
      7          1           0       -0.092703    1.174031   -0.885368
      8          1           0       -1.922101    0.065805    0.000066
 ---------------------------------------------------------------------

 SCF Done:  E(UB2PLYPD3) =  -154.117335229     A.U. after    1 cycles
 E2(B2PLYPD3) =    -0.1821203482D+00 E(B2PLYPD3) =    -0.15429945557706D+03
 E2(B2PLYPD3) =    -0.1821203482D+00 E(B2PLYPD3) =    -0.15429945557706D+03

 The electronic state is 2-A.
 Alpha  occ. eigenvalues --  -19.72001 -10.66426 -10.62420  -1.15698  -0.86583
 Alpha  occ. eigenvalues --   -0.70143  -0.58951  -0.55227  -0.48555  -0.45533
 Alpha  occ. eigenvalues --   -0.41374  -0.34771  -0.28979
 Alpha virt. eigenvalues --    0.07886   0.10860   0.12961   0.13475   0.18454
 Alpha virt. eigenvalues --    0.23350   0.26981   0.30637   0.35330   0.36824
 Alpha virt. eigenvalues --    0.40591   0.42996   0.44350   0.46496   0.49649

  Beta  occ. eigenvalues --  -19.71778 -10.66568 -10.60701  -1.15089  -0.83629
  Beta  occ. eigenvalues --   -0.67378  -0.57895  -0.54706  -0.47687  -0.44871
  Beta  occ. eigenvalues --   -0.40809  -0.34545
  Beta virt. eigenvalues --    0.00179   0.08281   0.11620   0.13043   0.13921
  Beta virt. eigenvalues --    0.18628   0.24176   0.27581   0.31060   0.35386
  Beta virt. eigenvalues --    0.40668   0.43493   0.43700   0.45100   0.49011

 Mulliken charges and spin densities:
               1          2
     1  C   -0.274893   1.077292
     2  C    0.075240  -0.054434
     3  O   -0.376536   0.031810
     4  H    0.127059  -0.039519
     5  H    0.127075  -0.039525
     6  H    0.057747   0.005492
     7  H    0.057746   0.005542
     8  H    0.206562   0.013341
 Sum of Mulliken charges =  -0.00000   1.00000

 Dipole moment (field-independent basis, Debye):
    X=             -0.2032    Y=              1.5547    Z=             -0.0004  Tot=              1.5679
 Quadrupole moment (field-independent basis, Debye-Ang):
   XX=            -16.7952   YY=            -20.4359   ZZ=            -18.8821
   XY=             -2.6282   XZ=              0.0015   YZ=              0.0016

  Exact polarizability:  33.725  -2.173  26.118   0.002   0.002  26.138
 Approx polarizability:  32.487  -1.451  28.341   0.002   0.002  28.302

 ******    1 imaginary frequencies (negative Signs) ******

                      1                      2                      3
                      A                      A                      A
 Frequencies --   -134.5944               239.4018               381.1945
 Red. masses --      1.0690                 1.1012                 1.8969
 Frc consts  --      0.0114                 0.0372                 0.1624
 IR Inten    --      1.2910               112.8610                28.9279

                      4                      5                      6
                      A                      A                      A
 Frequencies --    621.3440               817.5612               984.7729
 Red. masses --      2.0290                 1.0750                 6.7724
 Frc consts  --      0.4615                 0.4234                 3.8696
 IR Inten    --     16.1112                 0.2272                59.2485

                      7                      8                      9
                      A                      A                      A
 Frequencies --   1053.9248              1179.7531              1240.6000
 Red. masses --      2.8228                 1.5210                 1.1031
 Frc consts  --      1.8474                 1.2473                 1.0003
 IR Inten    --     63.8431                 0.7295                48.5355

                     10                     11                     12
                      A                      A                      A
 Frequencies --   1298.2052              1443.2102              1493.0530
 Red. masses --      1.0986                 1.2767                 1.2112
 Frc consts  --      1.0908                 1.5667                 1.5908
 IR Inten    --      0.2902                 6.7672                 3.9289

                     13                     14                     15
                      A                      A                      A
 Frequencies --   1537.9266              3014.8310              3050.9092
 Red. masses --      1.1303                 1.0544                 1.1080
 Frc consts  --      1.5751                 5.6467                 6.0763
 IR Inten    --      0.2634                59.2968                47.2099

                     16                     17                     18
                      A                      A                      A
 Frequencies --   3176.2037              3284.5773              3825.0817
 Red. masses --      1.0503                 1.1198                 1.0662
 Frc consts  --      6.2429                 7.1176                 9.1910
 IR Inten    --      8.3415                 9.2509                16.9550

 - Thermochemistry -
 -------------------
 Temperature   298.150 Kelvin.  Pressure   1.00000 Atm.
 Atom     1 has atomic number  6 and mass  12.00000

 Molecular mass:    45.03404 amu.
 Principal axes and moments of inertia in atomic units:
                           1         2         3
     Eigenvalues --    47.47715 183.68302 207.55557
           X            0.99844  -0.05587   0.00002
           Y            0.05587   0.99844   0.00017
           Z           -0.00003  -0.00017   1.00000
 This molecule is an asymmetric top.
 Rotational symmetry number  1.
 Rotational temperatures (Kelvin)      1.82433     0.47154     0.41730
 Rotational constants (GHZ):          38.01284     9.82530     8.69522
    1 imaginary frequencies ignored.
 Zero-point vibrational energy     171320.5 (Joules/Mol)
                                   40.94658 (Kcal/Mol)
 Warning -- explicit consideration of   2 degrees of freedom as
           vibrations may cause significant error
 Vibrational temperatures:    344.45   548.45   893.98  1176.29  1416.87
          (Kelvin)           1516.36  1697.40  1784.95  1867.83  2076.46
                             2148.17  2212.73  4337.67  4389.58  4569.85
                             4725.77  5503.44

 Zero-point correction=                           0.065253 (Hartree/Particle)
 Thermal correction to Energy=                    0.069265
 Thermal correction to Enthalpy=                  0.070209
 Thermal correction to Gibbs Free Energy=         0.039513
 Sum of electronic and zero-point Energies=           -154.234203
 Sum of electronic and thermal Energies=              -154.230191
 Sum of electronic and thermal Enthalpies=            -154.229246
 Sum of electronic and thermal Free Energies=         -154.259943

                     E (Thermal)             CV                S
                      KCal/Mol        Cal/Mol-Kelvin    Cal/Mol-Kelvin
 Total                   43.464             12.358             64.606
 Electronic               0.000              0.000              1.377
 Translational            0.889              2.981             37.340
 Rotational               0.889              2.981             22.120
 Vibrational             41.687              6.397              3.769
 Vibration     1          0.657              1.780              1.807
 Vibration     2          0.751              1.510              1.034

                           ! Non-Optimized Parameters !
 Normal termination of Gaussian 16 at Fri Aug  2 14:14:13 2019.
