 Gaussian 16, Revision B.01,
 Gaussian 16:  ES64L-G16RevB.01 20-Dec-2017

 -----------------------------------------------
 # opt=maxcyc=500 freq=noraman uB2PLYPD3/cc-pvtz
 -----------------------------------------------

 -------------------
 Title Card Required
 -------------------
 Symbolic Z-matrix:
 Charge =  0 Multiplicity = 2

 SCF Done:  E(UB2PLYPD3) =  -114.880852629     A.U. after   14 cycles
 E2(B2PLYPD3) =    -0.1284994818D+00 E(B2PLYPD3) =    -0.11500935211107D+03
 SCF Done:  E(UB2PLYPD3) =  -114.888740222     A.U. after   12 cycles
 E2(B2PLYPD3) =    -0.1280322122D+00 E(B2PLYPD3) =    -0.11501677243423D+03
 SCF Done:  E(UB2PLYPD3) =  -114.890467805     A.U. after   13 cycles
 E2(B2PLYPD3) =    -0.1277643842D+00 E(B2PLYPD3) =    -0.11501823218935D+03
 SCF Done:  E(UB2PLYPD3) =  -114.890540335     A.U. after   11 cycles
 E2(B2PLYPD3) =    -0.1278103312D+00 E(B2PLYPD3) =    -0.11501835066628D+03
 SCF Done:  E(UB2PLYPD3) =  -114.890541988     A.U. after    9 cycles
 E2(B2PLYPD3) =    -0.1278244599D+00 E(B2PLYPD3) =    -0.11501836644787D+03
 SCF Done:  E(UB2PLYPD3) =  -114.890532823     A.U. after    8 cycles
 E2(B2PLYPD3) =    -0.1278353548D+00 E(B2PLYPD3) =    -0.11501836817775D+03
 Optimization completed.
    -- Stationary point found.
 Normal termination of Gaussian 16 at Tue Jul 30 15:21:14 2019.

 ----------------------------------------------------------------------
 #N Geom=AllCheck Guess=TCheck SCRF=Check GenChk UB2PLYPD3(FC)/CC-pVTZ
 Freq
 ----------------------------------------------------------------------

 Structure from the checkpoint file:  "/localscratch/386879/Gau-61462.chk"
 -------------------
 Title Card Required
 -------------------
 Charge =  0 Multiplicity = 2

                         Standard orientation:
 ---------------------------------------------------------------------
 Center     Atomic      Atomic             Coordinates (Angstroms)
 Number     Number       Type             X           Y           Z
 ---------------------------------------------------------------------
      1          6           0        0.684129    0.027286   -0.065431
      2          1           0        1.115893    0.988369    0.170629
      3          1           0        1.230554   -0.883534    0.106827
      4          8           0       -0.670293   -0.125451    0.021524
      5          1           0       -1.088881    0.735058   -0.057064
 ---------------------------------------------------------------------

 SCF Done:  E(UB2PLYPD3) =  -114.890532823     A.U. after    1 cycles
 E2(B2PLYPD3) =    -0.1278353561D+00 E(B2PLYPD3) =    -0.11501836817907D+03
 E2(B2PLYPD3) =    -0.1278353561D+00 E(B2PLYPD3) =    -0.11501836817907D+03

 The electronic state is 2-A.
 Alpha  occ. eigenvalues --  -19.75661 -10.65888  -1.20070  -0.77663  -0.61003
 Alpha  occ. eigenvalues --   -0.52642  -0.48735  -0.42939  -0.24421
 Alpha virt. eigenvalues --    0.07400   0.11539   0.15836   0.23239   0.34704
 Alpha virt. eigenvalues --    0.37349   0.38731   0.43938   0.47119   0.52798
 Alpha virt. eigenvalues --    0.55802   0.58652   0.66214   0.69057   0.71169

  Beta  occ. eigenvalues --  -19.75011 -10.64205  -1.18429  -0.73658  -0.59778
  Beta  occ. eigenvalues --   -0.51622  -0.43085  -0.41292
  Beta virt. eigenvalues --    0.04396   0.07625   0.12200   0.16196   0.23886
  Beta virt. eigenvalues --    0.38035   0.39454   0.42184   0.44338   0.48578
  Beta virt. eigenvalues --    0.54278   0.56658   0.60061   0.67589   0.69650

 Mulliken charges and spin densities:
               1          2
     1  C   -0.123840   0.945052
     2  H    0.082111  -0.026039
     3  H    0.112045  -0.027056
     4  O   -0.290322   0.112172
     5  H    0.220006  -0.004128
 Sum of Mulliken charges =  -0.00000   1.00000

 Dipole moment (field-independent basis, Debye):
    X=              0.1062    Y=              1.5049    Z=              0.2199  Tot=              1.5246
 Quadrupole moment (field-independent basis, Debye-Ang):
   XX=            -11.6316   YY=            -10.9653   ZZ=            -14.1442
   XY=             -2.1070   XZ=              0.5964   YZ=             -0.0318

  Exact polarizability:  20.549  -0.715  17.345   0.187  -0.001  13.098
 Approx polarizability:  19.815  -0.578  18.253   0.140  -0.121  13.664

                      1                      2                      3
                      A                      A                      A
 Frequencies --    434.3395               598.8418              1065.8351
 Red. masses --      1.1059                 1.2533                 1.0810
 Frc consts  --      0.1229                 0.2648                 0.7236
 IR Inten    --     61.0929                83.2435                48.4090

                      4                      5                      6
                      A                      A                      A
 Frequencies --   1211.1920              1375.2707              1501.1707
 Red. masses --      5.2060                 1.2754                 1.1540
 Frc consts  --      4.4996                 1.4212                 1.5322
 IR Inten    --     93.3611                29.7273                 7.3948

                      7                      8                      9
                      A                      A                      A
 Frequencies --   3153.5833              3297.3335              3855.1284
 Red. masses --      1.0464                 1.1239                 1.0664
 Frc consts  --      6.1314                 7.1994                 9.3380
 IR Inten    --     20.5110                13.4977                59.4067

 - Thermochemistry -
 -------------------
 Temperature   298.150 Kelvin.  Pressure   1.00000 Atm.
 Atom     1 has atomic number  6 and mass  12.00000

 Molecular mass:    31.01839 amu.
 Principal axes and moments of inertia in atomic units:
                           1         2         3
     Eigenvalues --     9.31075  60.24082  68.89402
           X            0.99835  -0.05252   0.02304
           Y            0.05234   0.99859   0.00843
           Z           -0.02345  -0.00721   0.99970
 This molecule is an asymmetric top.
 Rotational symmetry number  1.
 Rotational temperatures (Kelvin)      9.30257     1.43779     1.25721
 Rotational constants (GHZ):         193.83419    29.95877    26.19590
 Zero-point vibrational energy      98648.2 (Joules/Mol)
                                   23.57749 (Kcal/Mol)
 Warning -- explicit consideration of   2 degrees of freedom as
           vibrations may cause significant error
 Vibrational temperatures:    624.92   861.60  1533.50  1742.64  1978.71
          (Kelvin)           2159.85  4537.30  4744.13  5546.67

 Zero-point correction=                           0.037573 (Hartree/Particle)
 Thermal correction to Energy=                    0.040901
 Thermal correction to Enthalpy=                  0.041846
 Thermal correction to Gibbs Free Energy=         0.014600
 Sum of electronic and zero-point Energies=           -114.980795
 Sum of electronic and thermal Energies=              -114.977467
 Sum of electronic and thermal Enthalpies=            -114.976523
 Sum of electronic and thermal Free Energies=         -115.003768

                     E (Thermal)             CV                S
                      KCal/Mol        Cal/Mol-Kelvin    Cal/Mol-Kelvin
 Total                   25.666              9.089             57.343
 Electronic               0.000              0.000              1.377
 Translational            0.889              2.981             36.229
 Rotational               0.889              2.981             18.297
 Vibrational             23.889              3.128              1.439
 Vibration     1          0.795              1.395              0.845
 Vibration     2          0.957              1.034              0.452

 Optimization completed.
    -- Stationary point found.
 Normal termination of Gaussian 16 at Tue Jul 30 15:22:10 2019.
