 Gaussian 16, Revision B.01,
 Gaussian 16:  ES64L-G16RevB.01 20-Dec-2017

 -----------------------------------------------
 # opt=maxcyc=500 freq=noraman uB2PLYPD3/cc-pvtz
 -----------------------------------------------

 -------------------
 Title Card Required
 -------------------
 Symbolic Z-matrix:
 Charge =  0 Multiplicity = 2

 SCF Done:  E(UB2PLYPD3) =  -39.7599973023     A.U. after   11 cycles
 E2(B2PLYPD3) =    -0.5124357365D-01 E(B2PLYPD3) =    -0.39811240875960D+02
 SCF Done:  E(UB2PLYPD3) =  -39.7600078518     A.U. after    7 cycles
 E2(B2PLYPD3) =    -0.5123439418D-01 E(B2PLYPD3) =    -0.39811242246011D+02
 Optimization completed.
    -- Stationary point found.
 Normal termination of Gaussian 16 at Sat Jun  1 01:18:56 2019.

 ----------------------------------------------------------------------
 #N Geom=AllCheck Guess=TCheck SCRF=Check GenChk UB2PLYPD3(FC)/CC-pVTZ
 Freq
 ----------------------------------------------------------------------

 Structure from the checkpoint file:  "/localscratch/339542/Gau-66515.chk"
 -------------------
 Title Card Required
 -------------------
 Charge =  0 Multiplicity = 2

                         Standard orientation:
 ---------------------------------------------------------------------
 Center     Atomic      Atomic             Coordinates (Angstroms)
 Number     Number       Type             X           Y           Z
 ---------------------------------------------------------------------
      1          6           0        0.000000    0.000000   -0.000012
      2          1           0        0.000000    1.075781    0.000025
      3          1           0        0.931654   -0.537891    0.000025
      4          1           0       -0.931654   -0.537891    0.000025
 ---------------------------------------------------------------------

 SCF Done:  E(UB2PLYPD3) =  -39.7600078518     A.U. after    1 cycles
 E2(B2PLYPD3) =    -0.5123439416D-01 E(B2PLYPD3) =    -0.39811242245985D+02
 E2(B2PLYPD3) =    -0.5123439416D-01 E(B2PLYPD3) =    -0.39811242245985D+02

 Unable to determine electronic state:  an orbital has unidentified symmetry.
 Alpha  occ. eigenvalues --  -10.62130  -0.79587  -0.48933  -0.48933  -0.29552
 Alpha virt. eigenvalues --    0.09169   0.16198   0.16198   0.30059   0.30059
 Alpha virt. eigenvalues --    0.35987   0.39792   0.53263   0.55666   0.55666
 Alpha virt. eigenvalues --    0.63053   0.63053   0.91674   0.95766   0.97704

  Beta  occ. eigenvalues --  -10.60423  -0.73769  -0.47850  -0.47850
  Beta virt. eigenvalues --    0.00787   0.09925   0.16450   0.16450   0.30172
  Beta virt. eigenvalues --    0.30172   0.43198   0.43763   0.55090   0.56300
  Beta virt. eigenvalues --    0.56300   0.66529   0.66529   0.91408   0.98065

 Mulliken charges and spin densities:
               1          2
     1  C   -0.373081   1.113485
     2  H    0.124360  -0.037828
     3  H    0.124360  -0.037828
     4  H    0.124360  -0.037828
 Sum of Mulliken charges =   0.00000   1.00000

 Dipole moment (field-independent basis, Debye):
    X=              0.0000    Y=             -0.0000    Z=              0.0001  Tot=              0.0001
 Quadrupole moment (field-independent basis, Debye-Ang):
   XX=             -7.2150   YY=             -7.2150   ZZ=             -8.9479
   XY=              0.0000   XZ=              0.0000   YZ=              0.0000

  Exact polarizability:  13.790  -0.000  13.790  -0.000   0.000  10.238
 Approx polarizability:  13.748   0.000  13.748   0.000   0.000  10.384

                      1                      2                      3
                     A1                     ?A                     ?A
 Frequencies --    514.3081              1427.6813              1427.6821
 Red. masses --      1.2356                 1.1021                 1.1021
 Frc consts  --      0.1926                 1.3236                 1.3236
 IR Inten    --     76.4595                 2.6915                 2.6916

                      4                      5                      6
                     ?B                     ?A                     ?A
 Frequencies --   3139.8359              3321.1151              3321.1176
 Red. masses --      1.0078                 1.1183                 1.1183
 Frc consts  --      5.8540                 7.2674                 7.2674
 IR Inten    --      0.0000                 4.1405                 4.1398

 - Thermochemistry -
 -------------------
 Temperature   298.150 Kelvin.  Pressure   1.00000 Atm.
 Atom     1 has atomic number  6 and mass  12.00000

 Molecular mass:    15.02348 amu.
 Principal axes and moments of inertia in atomic units:
                           1         2         3
     Eigenvalues --     6.24773   6.24773  12.49545
           X           -0.00865   0.99996   0.00000
           Y            0.99996   0.00865   0.00000
           Z           -0.00000   0.00000   1.00000
 This molecule is an oblate symmetric top.
 Rotational symmetry number  3.
 Rotational temperatures (Kelvin)     13.86327    13.86327     6.93164
 Rotational constants (GHZ):         288.86370   288.86370   144.43185
 Zero-point vibrational energy      78664.9 (Joules/Mol)
                                   18.80136 (Kcal/Mol)
 Warning -- explicit consideration of   1 degrees of freedom as
           vibrations may cause significant error
 Vibrational temperatures:    739.97  2054.12  2054.12  4517.52  4778.34
          (Kelvin)           4778.35

 Zero-point correction=                           0.029962 (Hartree/Particle)
 Thermal correction to Energy=                    0.033021
 Thermal correction to Enthalpy=                  0.033966
 Thermal correction to Gibbs Free Energy=         0.011221
 Sum of electronic and zero-point Energies=            -39.781280
 Sum of electronic and thermal Energies=               -39.778221
 Sum of electronic and thermal Enthalpies=             -39.777277
 Sum of electronic and thermal Free Energies=          -39.800021

                     E (Thermal)             CV                S
                      KCal/Mol        Cal/Mol-Kelvin    Cal/Mol-Kelvin
 Total                   20.721              7.373             47.870
 Electronic               0.000              0.000              1.377
 Translational            0.889              2.981             34.068
 Rotational               0.889              2.981             11.770
 Vibrational             18.944              1.411              0.655
 Vibration     1          0.869              1.218              0.623

 Optimization completed.
    -- Stationary point found.
 Normal termination of Gaussian 16 at Sat Jun  1 01:19:17 2019.
