 Gaussian 16, Revision B.01,
 Gaussian 16:  ES64L-G16RevB.01 20-Dec-2017

 -----------------------------------------------
 # opt=maxcyc=500 freq=noraman uB2PLYPD3/cc-pvtz
 -----------------------------------------------

 -------------------
 Title Card Required
 -------------------
 Symbolic Z-matrix:
 Charge =  0 Multiplicity = 2

 SCF Done:  E(UB2PLYPD3) =  -154.121667509     A.U. after   14 cycles
 E2(B2PLYPD3) =    -0.1852100228D+00 E(B2PLYPD3) =    -0.15430687753179D+03
 SCF Done:  E(UB2PLYPD3) =  -154.130078171     A.U. after   13 cycles
 E2(B2PLYPD3) =    -0.1842978613D+00 E(B2PLYPD3) =    -0.15431437603269D+03
 SCF Done:  E(UB2PLYPD3) =  -154.131822206     A.U. after   13 cycles
 E2(B2PLYPD3) =    -0.1840117503D+00 E(B2PLYPD3) =    -0.15431583395669D+03
 SCF Done:  E(UB2PLYPD3) =  -154.131860026     A.U. after   11 cycles
 E2(B2PLYPD3) =    -0.1840927944D+00 E(B2PLYPD3) =    -0.15431595282079D+03
 SCF Done:  E(UB2PLYPD3) =  -154.131873295     A.U. after   10 cycles
 E2(B2PLYPD3) =    -0.1840980651D+00 E(B2PLYPD3) =    -0.15431597136061D+03
 SCF Done:  E(UB2PLYPD3) =  -154.131870956     A.U. after    9 cycles
 E2(B2PLYPD3) =    -0.1841039889D+00 E(B2PLYPD3) =    -0.15431597494520D+03
 SCF Done:  E(UB2PLYPD3) =  -154.131873819     A.U. after    9 cycles
 E2(B2PLYPD3) =    -0.1841022188D+00 E(B2PLYPD3) =    -0.15431597603772D+03
 SCF Done:  E(UB2PLYPD3) =  -154.131875208     A.U. after    7 cycles
 E2(B2PLYPD3) =    -0.1841008923D+00 E(B2PLYPD3) =    -0.15431597609984D+03
 Optimization completed.
    -- Stationary point found.
 Normal termination of Gaussian 16 at Tue Jul 30 15:38:01 2019.

 ----------------------------------------------------------------------
 #N Geom=AllCheck Guess=TCheck SCRF=Check GenChk UB2PLYPD3(FC)/CC-pVTZ
 Freq
 ----------------------------------------------------------------------

 Structure from the checkpoint file:  "/localscratch/386879/Gau-39226.chk"
 -------------------
 Title Card Required
 -------------------
 Charge =  0 Multiplicity = 2

                         Standard orientation:
 ---------------------------------------------------------------------
 Center     Atomic      Atomic             Coordinates (Angstroms)
 Number     Number       Type             X           Y           Z
 ---------------------------------------------------------------------
      1          6           0        1.224568   -0.164080    0.012273
      2          6           0       -0.090020    0.507427   -0.102109
      3          8           0       -1.164925   -0.340825    0.020076
      4          1           0        2.027525    0.536665   -0.206702
      5          1           0        1.292877   -0.997162   -0.687907
      6          1           0        1.396331   -0.570838    1.016428
      7          1           0       -0.230651    1.521838    0.250944
      8          1           0       -1.973970    0.176014    0.005647
 ---------------------------------------------------------------------

 SCF Done:  E(UB2PLYPD3) =  -154.131875208     A.U. after    1 cycles
 E2(B2PLYPD3) =    -0.1841008958D+00 E(B2PLYPD3) =    -0.15431597610340D+03
 E2(B2PLYPD3) =    -0.1841008958D+00 E(B2PLYPD3) =    -0.15431597610340D+03

 The electronic state is 2-A.
 Alpha  occ. eigenvalues --  -19.74778 -10.65838 -10.60294  -1.19276  -0.86219
 Alpha  occ. eigenvalues --   -0.69948  -0.61339  -0.51158  -0.49578  -0.45500
 Alpha  occ. eigenvalues --   -0.43985  -0.41424  -0.22946
 Alpha virt. eigenvalues --    0.07561   0.10486   0.13096   0.16181   0.17094
 Alpha virt. eigenvalues --    0.24617   0.26901   0.31475   0.33358   0.36064
 Alpha virt. eigenvalues --    0.40231   0.42592   0.45017   0.47286   0.52378

  Beta  occ. eigenvalues --  -19.74232 -10.64109 -10.60415  -1.17821  -0.84539
  Beta  occ. eigenvalues --   -0.67714  -0.60175  -0.48584  -0.47392  -0.45280
  Beta  occ. eigenvalues --   -0.41353  -0.39858
  Beta virt. eigenvalues --    0.05052   0.07794   0.10607   0.13570   0.16364
  Beta virt. eigenvalues --    0.17405   0.25039   0.28123   0.32113   0.33871
  Beta virt. eigenvalues --    0.38290   0.43190   0.44083   0.45994   0.48332

 Mulliken charges and spin densities:
               1          2
     1  C   -0.264274  -0.059156
     2  C   -0.017723   0.901502
     3  O   -0.307129   0.097612
     4  H    0.092889   0.002088
     5  H    0.105324   0.018391
     6  H    0.092414   0.063900
     7  H    0.083744  -0.020368
     8  H    0.214755  -0.003969
 Sum of Mulliken charges =  -0.00000   1.00000

 Dipole moment (field-independent basis, Debye):
    X=             -0.4552    Y=              1.2566    Z=              0.3039  Tot=              1.3706
 Quadrupole moment (field-independent basis, Debye-Ang):
   XX=            -15.6143   YY=            -19.4815   ZZ=            -20.4342
   XY=             -1.9956   XZ=             -0.1338   YZ=              0.5722

  Exact polarizability:  35.017  -0.964  29.259   0.322  -0.006  24.102
 Approx polarizability:  33.323  -0.222  31.458   0.220  -0.039  26.712

                      1                      2                      3
                      A                      A                      A
 Frequencies --    183.6347               368.9545               412.0421
 Red. masses --      1.1773                 1.1082                 2.5652
 Frc consts  --      0.0234                 0.0889                 0.2566
 IR Inten    --      3.5997               121.0035                 9.3998

                      4                      5                      6
                      A                      A                      A
 Frequencies --    593.5249               937.7989              1034.3318
 Red. masses --      1.2570                 2.1096                 1.4129
 Frc consts  --      0.2609                 1.0931                 0.8906
 IR Inten    --     17.0653                 9.8973                 6.3785

                      7                      8                      9
                      A                      A                      A
 Frequencies --   1068.6967              1216.5258              1284.6843
 Red. masses --      1.5704                 2.0948                 1.5308
 Frc consts  --      1.0568                 1.8266                 1.4885
 IR Inten    --     31.5099                43.1902               117.0986

                     10                     11                     12
                      A                      A                      A
 Frequencies --   1404.5779              1462.0860              1480.1152
 Red. masses --      1.2137                 1.5857                 1.0779
 Frc consts  --      1.4108                 1.9972                 1.3913
 IR Inten    --      0.1134                16.6183                 9.9216

                     13                     14                     15
                      A                      A                      A
 Frequencies --   1504.8785              2988.7614              3077.0133
 Red. masses --      1.0601                 1.0558                 1.0779
 Frc consts  --      1.4145                 5.5565                 6.0127
 IR Inten    --      1.6186                39.9840                17.8304

                     16                     17                     18
                      A                      A                      A
 Frequencies --   3130.9750              3157.7674              3854.4206
 Red. masses --      1.0967                 1.0907                 1.0663
 Frc consts  --      6.3341                 6.4077                 9.3336
 IR Inten    --      7.6399                46.0967                58.8437

 - Thermochemistry -
 -------------------
 Temperature   298.150 Kelvin.  Pressure   1.00000 Atm.
 Atom     1 has atomic number  6 and mass  12.00000

 Molecular mass:    45.03404 amu.
 Principal axes and moments of inertia in atomic units:
                           1         2         3
     Eigenvalues --    39.06053 190.10128 216.76542
           X            0.99924  -0.03895  -0.00043
           Y            0.03892   0.99796   0.05065
           Z           -0.00154  -0.05062   0.99872
 This molecule is an asymmetric top.
 Rotational symmetry number  1.
 Rotational temperatures (Kelvin)      2.21743     0.45562     0.39957
 Rotational constants (GHZ):          46.20370     9.49358     8.32578
 Zero-point vibrational energy     174420.3 (Joules/Mol)
                                   41.68744 (Kcal/Mol)
 Warning -- explicit consideration of   4 degrees of freedom as
           vibrations may cause significant error
 Vibrational temperatures:    264.21   530.84   592.84   853.95  1349.28
          (Kelvin)           1488.17  1537.62  1750.31  1848.37  2020.87
                             2103.62  2129.56  2165.18  4300.16  4427.14
                             4504.77  4543.32  5545.65

 Zero-point correction=                           0.066433 (Hartree/Particle)
 Thermal correction to Energy=                    0.070813
 Thermal correction to Enthalpy=                  0.071757
 Thermal correction to Gibbs Free Energy=         0.040459
 Sum of electronic and zero-point Energies=           -154.249543
 Sum of electronic and thermal Energies=              -154.245163
 Sum of electronic and thermal Enthalpies=            -154.244219
 Sum of electronic and thermal Free Energies=         -154.275517

                     E (Thermal)             CV                S
                      KCal/Mol        Cal/Mol-Kelvin    Cal/Mol-Kelvin
 Total                   44.436             13.643             65.872
 Electronic               0.000              0.000              1.377
 Translational            0.889              2.981             37.340
 Rotational               0.889              2.981             22.003
 Vibrational             42.658              7.681              5.152
 Vibration     1          0.631              1.862              2.291
 Vibration     2          0.741              1.536              1.084
 Vibration     3          0.776              1.444              0.919
 Vibration     4          0.951              1.046              0.461

 Optimization completed.
    -- Stationary point found.
 Normal termination of Gaussian 16 at Tue Jul 30 15:41:55 2019.
