 Gaussian 16, Revision B.01,
 Gaussian 16:  ES64L-G16RevB.01 20-Dec-2017

 -----------------------------------------------
 # opt=maxcyc=500 freq=noraman uB2PLYPD3/cc-pvtz
 -----------------------------------------------

 -------------------
 Title Card Required
 -------------------
 Symbolic Z-matrix:
 Charge =  0 Multiplicity = 2

 SCF Done:  E(UB2PLYPD3) =  -114.883740193     A.U. after   22 cycles
 E2(B2PLYPD3) =    -0.1199254204D+00 E(B2PLYPD3) =    -0.11500366561346D+03
 SCF Done:  E(UB2PLYPD3) =  -114.884870229     A.U. after   19 cycles
 E2(B2PLYPD3) =    -0.1200070451D+00 E(B2PLYPD3) =    -0.11500487727378D+03
 SCF Done:  E(UB2PLYPD3) =  -114.884943762     A.U. after   18 cycles
 E2(B2PLYPD3) =    -0.1201894971D+00 E(B2PLYPD3) =    -0.11500513325933D+03
 SCF Done:  E(UB2PLYPD3) =  -114.884907215     A.U. after   16 cycles
 E2(B2PLYPD3) =    -0.1202380466D+00 E(B2PLYPD3) =    -0.11500514526207D+03
 Optimization completed.
    -- Stationary point found.
 Normal termination of Gaussian 16 at Tue Jul 30 15:19:27 2019.

 ----------------------------------------------------------------------
 #N Geom=AllCheck Guess=TCheck SCRF=Check GenChk UB2PLYPD3(FC)/CC-pVTZ
 Freq
 ----------------------------------------------------------------------

 Structure from the checkpoint file:  "/localscratch/386879/Gau-6761.chk"
 -------------------
 Title Card Required
 -------------------
 Charge =  0 Multiplicity = 2

                         Standard orientation:
 ---------------------------------------------------------------------
 Center     Atomic      Atomic             Coordinates (Angstroms)
 Number     Number       Type             X           Y           Z
 ---------------------------------------------------------------------
      1          6           0        0.575746    0.000019   -0.012805
      2          1           0        1.004357   -0.903944   -0.456643
      3          1           0        1.004410    0.904500   -0.455517
      4          1           0        0.867188   -0.000726    1.050943
      5          8           0       -0.791304    0.000007   -0.007744
 ---------------------------------------------------------------------

 SCF Done:  E(UB2PLYPD3) =  -114.884907215     A.U. after    1 cycles
 E2(B2PLYPD3) =    -0.1202380465D+00 E(B2PLYPD3) =    -0.11500514526204D+03
 E2(B2PLYPD3) =    -0.1202380465D+00 E(B2PLYPD3) =    -0.11500514526204D+03

 The electronic state is 2-A.
 Alpha  occ. eigenvalues --  -19.77808 -10.66863  -1.18557  -0.78059  -0.57546
 Alpha  occ. eigenvalues --   -0.54363  -0.51806  -0.41423  -0.37096
 Alpha virt. eigenvalues --    0.08245   0.14571   0.15234   0.16897   0.29113
 Alpha virt. eigenvalues --    0.31760   0.44938   0.49588   0.50547   0.50702
 Alpha virt. eigenvalues --    0.53524   0.59462   0.60073   0.65350   0.75961

  Beta  occ. eigenvalues --  -19.74853 -10.66995  -1.10368  -0.75658  -0.53540
  Beta  occ. eigenvalues --   -0.50176  -0.49079  -0.34600
  Beta virt. eigenvalues --   -0.03629   0.08354   0.15126   0.15252   0.17614
  Beta virt. eigenvalues --    0.29962   0.32032   0.45889   0.49998   0.50627
  Beta virt. eigenvalues --    0.51614   0.54033   0.60540   0.64019   0.66608

 Mulliken charges and spin densities:
               1          2
     1  C   -0.018299  -0.087113
     2  H    0.067732   0.019878
     3  H    0.067716   0.019837
     4  H    0.103606   0.098972
     5  O   -0.220755   0.948425
 Sum of Mulliken charges =  -0.00000   1.00000

 Dipole moment (field-independent basis, Debye):
    X=              1.9303    Y=             -0.0002    Z=              0.1580  Tot=              1.9368
 Quadrupole moment (field-independent basis, Debye-Ang):
   XX=            -13.4811   YY=            -12.6803   ZZ=            -11.6329
   XY=             -0.0002   XZ=              0.1928   YZ=             -0.0005

  Exact polarizability:  19.879  -0.000  17.612   0.108   0.002  15.649
 Approx polarizability:  20.124  -0.000  16.329   0.214  -0.000  16.545

                      1                      2                      3
                      A                      A                      A
 Frequencies --    746.8615               966.2790              1118.4313
 Red. masses --      1.3268                 1.5826                 3.6677
 Frc consts  --      0.4360                 0.8706                 2.7031
 IR Inten    --     62.4503                 0.5573                 9.4626

                      4                      5                      6
                      A                      A                      A
 Frequencies --   1388.1526              1388.6141              1531.0425
 Red. masses --      1.0236                 1.0950                 1.1074
 Frc consts  --      1.1621                 1.2441                 1.5294
 IR Inten    --     15.7322                16.2029                 5.5775

                      7                      8                      9
                      A                      A                      A
 Frequencies --   2939.8427              3015.4862              3060.2465
 Red. masses --      1.0427                 1.0744                 1.1032
 Frc consts  --      5.3093                 5.7564                 6.0870
 IR Inten    --      0.0110                39.2876                33.6442

 - Thermochemistry -
 -------------------
 Temperature   298.150 Kelvin.  Pressure   1.00000 Atm.
 Atom     1 has atomic number  6 and mass  12.00000

 Molecular mass:    31.01839 amu.
 Principal axes and moments of inertia in atomic units:
                           1         2         3
     Eigenvalues --    11.36577  64.48429  64.88896
           X            1.00000  -0.00000   0.00053
           Y            0.00000   1.00000   0.00001
           Z           -0.00053  -0.00001   1.00000
 This molecule is an asymmetric top.
 Rotational symmetry number  1.
 Rotational temperatures (Kelvin)      7.62059     1.34318     1.33480
 Rotational constants (GHZ):         158.78738    27.98730    27.81276
 Zero-point vibrational energy      96628.1 (Joules/Mol)
                                   23.09467 (Kcal/Mol)
 Vibrational temperatures:   1074.57  1390.26  1609.17  1997.24  1997.91
          (Kelvin)           2202.83  4229.78  4338.61  4403.01

 Zero-point correction=                           0.036804 (Hartree/Particle)
 Thermal correction to Energy=                    0.039817
 Thermal correction to Enthalpy=                  0.040761
 Thermal correction to Gibbs Free Energy=         0.013879
 Sum of electronic and zero-point Energies=           -114.968342
 Sum of electronic and thermal Energies=              -114.965329
 Sum of electronic and thermal Enthalpies=            -114.964385
 Sum of electronic and thermal Free Energies=         -114.991267

                     E (Thermal)             CV                S
                      KCal/Mol        Cal/Mol-Kelvin    Cal/Mol-Kelvin
 Total                   24.985              7.672             56.578
 Electronic               0.000              0.000              1.377
 Translational            0.889              2.981             36.229
 Rotational               0.889              2.981             18.504
 Vibrational             23.208              1.710              0.468

 Optimization completed.
    -- Stationary point found.
 Normal termination of Gaussian 16 at Tue Jul 30 15:20:23 2019.
