 Gaussian 16, Revision B.01,
 Gaussian 16:  ES64L-G16RevB.01 20-Dec-2017

 -----------------------------------------------
 # opt=maxcyc=500 freq=noraman uB2PLYPD3/cc-pvtz
 -----------------------------------------------

 -------------------
 Title Card Required
 -------------------
 Symbolic Z-matrix:
 Charge =  0 Multiplicity = 1

 SCF Done:  E(UB2PLYPD3) =  -190.577598354     A.U. after   13 cycles
 E2(B2PLYPD3) =    -0.2158728278D+00 E(B2PLYPD3) =    -0.19079347118205D+03
 SCF Done:  E(UB2PLYPD3) =  -190.577190525     A.U. after   10 cycles
 E2(B2PLYPD3) =    -0.2166919315D+00 E(B2PLYPD3) =    -0.19079388245634D+03
 SCF Done:  E(UB2PLYPD3) =  -190.576803910     A.U. after    9 cycles
 E2(B2PLYPD3) =    -0.2171435760D+00 E(B2PLYPD3) =    -0.19079394748594D+03
 SCF Done:  E(UB2PLYPD3) =  -190.576768183     A.U. after   10 cycles
 E2(B2PLYPD3) =    -0.2171888163D+00 E(B2PLYPD3) =    -0.19079395699962D+03
 SCF Done:  E(UB2PLYPD3) =  -190.576759392     A.U. after   10 cycles
 E2(B2PLYPD3) =    -0.2172019482D+00 E(B2PLYPD3) =    -0.19079396134042D+03
 SCF Done:  E(UB2PLYPD3) =  -190.576785584     A.U. after    8 cycles
 E2(B2PLYPD3) =    -0.2171764980D+00 E(B2PLYPD3) =    -0.19079396208177D+03
 Optimization completed.
    -- Stationary point found.
 Normal termination of Gaussian 16 at Sat Jun  1 01:25:00 2019.

 ----------------------------------------------------------------------
 #N Geom=AllCheck Guess=TCheck SCRF=Check GenChk UB2PLYPD3(FC)/CC-pVTZ
 Freq
 ----------------------------------------------------------------------

 Structure from the checkpoint file:  "/localscratch/339542/Gau-35402.chk"
 -------------------
 Title Card Required
 -------------------
 Charge =  0 Multiplicity = 1

                         Standard orientation:
 ---------------------------------------------------------------------
 Center     Atomic      Atomic             Coordinates (Angstroms)
 Number     Number       Type             X           Y           Z
 ---------------------------------------------------------------------
      1          6           0       -1.122354   -0.227715    0.023342
      2          1           0       -1.131613   -0.836563    0.928553
      3          1           0       -1.970260    0.454904    0.027567
      4          1           0       -1.171333   -0.871048   -0.854654
      5          8           0        0.014485    0.612152   -0.024415
      6          8           0        1.162393   -0.276962   -0.098150
      7          1           0        1.592302   -0.062524    0.739007
 ---------------------------------------------------------------------

 SCF Done:  E(UB2PLYPD3) =  -190.576785584     A.U. after    1 cycles
 E2(B2PLYPD3) =    -0.2171765011D+00 E(B2PLYPD3) =    -0.19079396208495D+03
 E2(B2PLYPD3) =    -0.2171765011D+00 E(B2PLYPD3) =    -0.19079396208495D+03

 The electronic state is 1-A.
 Alpha  occ. eigenvalues --  -19.78742 -19.78212 -10.66256  -1.26560  -1.04496
 Alpha  occ. eigenvalues --   -0.77777  -0.60928  -0.55339  -0.54295  -0.49353
 Alpha  occ. eigenvalues --   -0.43825  -0.38988  -0.34589
 Alpha virt. eigenvalues --    0.07621   0.09582   0.12213   0.15136   0.16095
 Alpha virt. eigenvalues --    0.20811   0.31008   0.32549   0.44286   0.46850
 Alpha virt. eigenvalues --    0.50188   0.51124   0.52043   0.54681   0.56594

  Beta  occ. eigenvalues --  -19.78742 -19.78212 -10.66256  -1.26560  -1.04496
  Beta  occ. eigenvalues --   -0.77777  -0.60928  -0.55339  -0.54295  -0.49353
  Beta  occ. eigenvalues --   -0.43825  -0.38988  -0.34589
  Beta virt. eigenvalues --    0.07621   0.09582   0.12213   0.15136   0.16095
  Beta virt. eigenvalues --    0.20811   0.31008   0.32549   0.44286   0.46850
  Beta virt. eigenvalues --    0.50188   0.51124   0.52043   0.54681   0.56594

 Mulliken charges and spin densities:
               1          2
     1  C   -0.027377  -0.000000
     2  H    0.063755   0.000000
     3  H    0.092060  -0.000000
     4  H    0.080557   0.000000
     5  O   -0.202590   0.000000
     6  O   -0.249162   0.000000
     7  H    0.242757   0.000000
 Sum of Mulliken charges =  -0.00000  -0.00000

 Dipole moment (field-independent basis, Debye):
    X=             -0.7339    Y=             -0.5916    Z=              1.4558  Tot=              1.7344
 Quadrupole moment (field-independent basis, Debye-Ang):
   XX=            -15.0403   YY=            -19.6255   ZZ=            -17.5070
   XY=              0.4087   XZ=              2.6735   YZ=              0.0254

  Exact polarizability:  30.461  -1.530  21.221   1.127   0.190  20.840
 Approx polarizability:  30.508  -3.392  24.486   0.873   0.525  22.526

                      1                      2                      3
                      A                      A                      A
 Frequencies --    190.3579               255.9289               448.7643
 Red. masses --      1.1037                 1.2103                 3.3295
 Frc consts  --      0.0236                 0.0467                 0.3951
 IR Inten    --    110.7494                 7.6506                 6.3549

                      4                      5                      6
                      A                      A                      A
 Frequencies --    876.9274              1051.4568              1182.7808
 Red. masses --      6.6157                 5.7065                 1.2587
 Frc consts  --      2.9975                 3.7171                 1.0375
 IR Inten    --     15.4996                19.2425                 2.5339

                      7                      8                      9
                      A                      A                      A
 Frequencies --   1215.4365              1371.9496              1461.7178
 Red. masses --      1.5608                 1.1458                 1.1439
 Frc consts  --      1.3585                 1.2707                 1.4400
 IR Inten    --      5.7610                50.4365                 1.6138

                     10                     11                     12
                      A                      A                      A
 Frequencies --   1478.7152              1526.7007              3035.0586
 Red. masses --      1.0489                 1.0566                 1.0300
 Frc consts  --      1.3512                 1.4510                 5.5901
 IR Inten    --      5.8861                 9.1754                37.7728

                     13                     14                     15
                      A                      A                      A
 Frequencies --   3107.8430              3139.2467              3785.1507
 Red. masses --      1.1059                 1.1033                 1.0684
 Frc consts  --      6.2933                 6.4063                 9.0192
 IR Inten    --     42.5238                16.4590                37.1669

 - Thermochemistry -
 -------------------
 Temperature   298.150 Kelvin.  Pressure   1.00000 Atm.
 Atom     1 has atomic number  6 and mass  12.00000

 Molecular mass:    48.02113 amu.
 Principal axes and moments of inertia in atomic units:
                           1         2         3
     Eigenvalues --    41.95519 171.64801 197.26511
           X            0.99932   0.02873   0.02321
           Y           -0.02853   0.99955  -0.00889
           Z           -0.02346   0.00822   0.99969
 This molecule is an asymmetric top.
 Rotational symmetry number  1.
 Rotational temperatures (Kelvin)      2.06444     0.50460     0.43907
 Rotational constants (GHZ):          43.01592    10.51420     9.14881
 Zero-point vibrational energy     144317.7 (Joules/Mol)
                                   34.49276 (Kcal/Mol)
 Warning -- explicit consideration of   3 degrees of freedom as
           vibrations may cause significant error
 Vibrational temperatures:    273.88   368.22   645.67  1261.70  1512.81
          (Kelvin)           1701.76  1748.74  1973.93  2103.09  2127.54
                             2196.58  4366.77  4471.49  4516.68  5445.99

 Zero-point correction=                           0.054968 (Hartree/Particle)
 Thermal correction to Energy=                    0.059266
 Thermal correction to Enthalpy=                  0.060210
 Thermal correction to Gibbs Free Energy=         0.029567
 Sum of electronic and zero-point Energies=           -190.738994
 Sum of electronic and thermal Energies=              -190.734696
 Sum of electronic and thermal Enthalpies=            -190.733752
 Sum of electronic and thermal Free Energies=         -190.764395

                     E (Thermal)             CV                S
                      KCal/Mol        Cal/Mol-Kelvin    Cal/Mol-Kelvin
 Total                   37.190             12.550             64.493
 Electronic               0.000              0.000              0.000
 Translational            0.889              2.981             37.531
 Rotational               0.889              2.981             21.879
 Vibrational             35.413              6.589              5.083
 Vibration     1          0.634              1.853              2.224
 Vibration     2          0.666              1.753              1.689
 Vibration     3          0.808              1.364              0.800

 Optimization completed.
    -- Stationary point found.
 Normal termination of Gaussian 16 at Sat Jun  1 01:27:57 2019.
