 Gaussian 16, Revision B.01,
 Gaussian 16:  ES64L-G16RevB.01 20-Dec-2017

 ----------------------------------------------------------------------
 # opt=(maxcyc=500,modredundant) uB2PLYPD3/cc-pvtz scf=maxcyc=500 nosym
 m
 ----------------------------------------------------------------------

 -------------------
 Title Card Required
 -------------------
 Symbolic Z-matrix:
 Charge =  0 Multiplicity = 2

 SCF Done:  E(UB2PLYPD3) =  -189.950554580     A.U. after   22 cycles
 E2(B2PLYPD3) =    -0.2039088982D+00 E(B2PLYPD3) =    -0.19015446347793D+03
 SCF Done:  E(UB2PLYPD3) =  -189.950319032     A.U. after   16 cycles
 E2(B2PLYPD3) =    -0.2044978766D+00 E(B2PLYPD3) =    -0.19015481690906D+03
 SCF Done:  E(UB2PLYPD3) =  -189.950124669     A.U. after   15 cycles
 E2(B2PLYPD3) =    -0.2047299107D+00 E(B2PLYPD3) =    -0.19015485458003D+03
 SCF Done:  E(UB2PLYPD3) =  -189.950120759     A.U. after   13 cycles
 E2(B2PLYPD3) =    -0.2047352636D+00 E(B2PLYPD3) =    -0.19015485602256D+03
 Optimization completed.
    -- Stationary point found.
 SCF Done:  E(UB2PLYPD3) =  -189.950040774     A.U. after   15 cycles
 E2(B2PLYPD3) =    -0.2047369598D+00 E(B2PLYPD3) =    -0.19015477773421D+03
 SCF Done:  E(UB2PLYPD3) =  -189.950044353     A.U. after   13 cycles
 E2(B2PLYPD3) =    -0.2047387848D+00 E(B2PLYPD3) =    -0.19015478313772D+03
 Optimization completed.
 SCF Done:  E(UB2PLYPD3) =  -189.949790518     A.U. after   15 cycles
 E2(B2PLYPD3) =    -0.2047664637D+00 E(B2PLYPD3) =    -0.19015455698161D+03
 SCF Done:  E(UB2PLYPD3) =  -189.949789633     A.U. after   15 cycles
 E2(B2PLYPD3) =    -0.2047760805D+00 E(B2PLYPD3) =    -0.19015456571383D+03
 SCF Done:  E(UB2PLYPD3) =  -189.949436270     A.U. after   16 cycles
 E2(B2PLYPD3) =    -0.2048148247D+00 E(B2PLYPD3) =    -0.19015425109449D+03
 SCF Done:  E(UB2PLYPD3) =  -189.949433167     A.U. after   13 cycles
 E2(B2PLYPD3) =    -0.2048309867D+00 E(B2PLYPD3) =    -0.19015426415385D+03
 E2(B2PLYPD3) =    -0.2048695284D+00 E(B2PLYPD3) =    -0.19015394517454D+03
 E2(B2PLYPD3) =    -0.2048876291D+00 E(B2PLYPD3) =    -0.19015396050194D+03
 E2(B2PLYPD3) =    -0.2049163331D+00 E(B2PLYPD3) =    -0.19015371901306D+03
 E2(B2PLYPD3) =    -0.2049297622D+00 E(B2PLYPD3) =    -0.19015373418769D+03
 E2(B2PLYPD3) =    -0.2049430001D+00 E(B2PLYPD3) =    -0.19015362900139D+03
 E2(B2PLYPD3) =    -0.2049461805D+00 E(B2PLYPD3) =    -0.19015364332114D+03
 E2(B2PLYPD3) =    -0.2049421843D+00 E(B2PLYPD3) =    -0.19015369664130D+03
 E2(B2PLYPD3) =    -0.2049329449D+00 E(B2PLYPD3) =    -0.19015371119407D+03
 E2(B2PLYPD3) =    -0.2049131638D+00 E(B2PLYPD3) =    -0.19015390608984D+03
 E2(B2PLYPD3) =    -0.2048941333D+00 E(B2PLYPD3) =    -0.19015392186108D+03
 E2(B2PLYPD3) =    -0.2048284088D+00 E(B2PLYPD3) =    -0.19015422550692D+03
 E2(B2PLYPD3) =    -0.2048483739D+00 E(B2PLYPD3) =    -0.19015423925762D+03
 E2(B2PLYPD3) =    -0.2048801448D+00 E(B2PLYPD3) =    -0.19015392572709D+03
 E2(B2PLYPD3) =    -0.2048986453D+00 E(B2PLYPD3) =    -0.19015394083282D+03
 E2(B2PLYPD3) =    -0.2049205792D+00 E(B2PLYPD3) =    -0.19015370902759D+03
 E2(B2PLYPD3) =    -0.2049337192D+00 E(B2PLYPD3) =    -0.19015372345849D+03
 E2(B2PLYPD3) =    -0.2049421954D+00 E(B2PLYPD3) =    -0.19015362920399D+03
 E2(B2PLYPD3) =    -0.2049464493D+00 E(B2PLYPD3) =    -0.19015364272526D+03
 E2(B2PLYPD3) =    -0.2049408685D+00 E(B2PLYPD3) =    -0.19015370585506D+03
 E2(B2PLYPD3) =    -0.2049343224D+00 E(B2PLYPD3) =    -0.19015371950644D+03
 SCF Done:  E(UB2PLYPD3) =  -189.949003157     A.U. after   16 cycles
 E2(B2PLYPD3) =    -0.2049159312D+00 E(B2PLYPD3) =    -0.19015391908853D+03
 SCF Done:  E(UB2PLYPD3) =  -189.949034386     A.U. after   13 cycles
 E2(B2PLYPD3) =    -0.2048993796D+00 E(B2PLYPD3) =    -0.19015393376569D+03
 SCF Done:  E(UB2PLYPD3) =  -189.949344910     A.U. after   16 cycles
 E2(B2PLYPD3) =    -0.2048709405D+00 E(B2PLYPD3) =    -0.19015421585017D+03
 SCF Done:  E(UB2PLYPD3) =  -189.949382549     A.U. after   13 cycles
 E2(B2PLYPD3) =    -0.2048485293D+00 E(B2PLYPD3) =    -0.19015423107845D+03
 SCF Done:  E(UB2PLYPD3) =  -189.949705045     A.U. after   16 cycles
 E2(B2PLYPD3) =    -0.2048160690D+00 E(B2PLYPD3) =    -0.19015452111426D+03
 SCF Done:  E(UB2PLYPD3) =  -189.949741359     A.U. after   14 cycles
 E2(B2PLYPD3) =    -0.2047934300D+00 E(B2PLYPD3) =    -0.19015453478872D+03
 SCF Done:  E(UB2PLYPD3) =  -189.949988140     A.U. after   16 cycles
 E2(B2PLYPD3) =    -0.2047662520D+00 E(B2PLYPD3) =    -0.19015475439239D+03
 SCF Done:  E(UB2PLYPD3) =  -189.950015414     A.U. after   15 cycles
 E2(B2PLYPD3) =    -0.2047488481D+00 E(B2PLYPD3) =    -0.19015476426237D+03
    -- Stationary point found.
 SCF Done:  E(UB2PLYPD3) =  -189.950113082     A.U. after   16 cycles
 E2(B2PLYPD3) =    -0.2047368180D+00 E(B2PLYPD3) =    -0.19015484990027D+03
 SCF Done:  E(UB2PLYPD3) =  -189.950127248     A.U. after   13 cycles
 E2(B2PLYPD3) =    -0.2047287513D+00 E(B2PLYPD3) =    -0.19015485599902D+03
 Optimization completed.
    -- Stationary point found.

                          Input orientation:
 ---------------------------------------------------------------------
 Center     Atomic      Atomic             Coordinates (Angstroms)
 Number     Number       Type             X           Y           Z
 ---------------------------------------------------------------------
      1          6           0        1.078455   -0.214930    0.066763
      2          1           0        1.360625    0.122514   -0.925804
      3          1           0        1.765342    0.160482    0.818682
      4          1           0        1.013861   -1.298173    0.100821
      5          8           0       -0.211162    0.342267    0.403172
      6          8           0       -1.123692   -0.045905   -0.463932
 ---------------------------------------------------------------------

 Alpha  occ. eigenvalues --  -19.84234 -19.81490 -10.68154  -1.35021  -1.01944
 Alpha  occ. eigenvalues --   -0.79841  -0.61925  -0.59363  -0.58605  -0.49890
 Alpha  occ. eigenvalues --   -0.47677  -0.37452  -0.37224
 Alpha virt. eigenvalues --    0.08239   0.13416   0.13931   0.14808   0.22235
 Alpha virt. eigenvalues --    0.29300   0.30453   0.40425   0.48903   0.50162
 Alpha virt. eigenvalues --    0.50187   0.53791   0.56254   0.58223   0.62509

  Beta  occ. eigenvalues --  -19.83185 -19.78826 -10.68210  -1.31100  -0.96562
  Beta  occ. eigenvalues --   -0.78252  -0.57781  -0.57571  -0.55474  -0.47034
  Beta  occ. eigenvalues --   -0.41827  -0.35134
  Beta virt. eigenvalues --   -0.02106   0.08275   0.13943   0.14017   0.15378
  Beta virt. eigenvalues --    0.24413   0.29534   0.30528   0.40676   0.48997
  Beta virt. eigenvalues --    0.50221   0.50259   0.53934   0.58548   0.58648

 Mulliken charges and spin densities:
               1          2
     1  C   -0.064011  -0.024854
     2  H    0.098928   0.011921
     3  H    0.099917  -0.002086
     4  H    0.098884   0.012044
     5  O   -0.093920   0.219832
     6  O   -0.139798   0.783143
 Sum of Mulliken charges =  -0.00000   1.00000

 Dipole moment (field-independent basis, Debye):
    X=              2.5169    Y=             -0.5639    Z=              0.0816  Tot=              2.5806
 Quadrupole moment (field-independent basis, Debye-Ang):
   XX=            -17.1699   YY=            -17.3425   ZZ=            -17.7936
   XY=              0.0302   XZ=             -0.0722   YZ=             -0.6176

 Normal termination of Gaussian 16 at Sat Jun  1 09:58:49 2019.
