 Gaussian 16, Revision B.01,
 Gaussian 16:  ES64L-G16RevB.01 20-Dec-2017

 -----------------------------------------------
 # opt=maxcyc=500 freq=noraman uB2PLYPD3/cc-pvtz
 -----------------------------------------------

 -------------------
 Title Card Required
 -------------------
 Symbolic Z-matrix:
 Charge =  0 Multiplicity = 1

 SCF Done:  E(UB2PLYPD3) =  -115.540104779     A.U. after   11 cycles
 E2(B2PLYPD3) =    -0.1379318431D+00 E(B2PLYPD3) =    -0.11567803662208D+03
 SCF Done:  E(UB2PLYPD3) =  -115.540031997     A.U. after    8 cycles
 E2(B2PLYPD3) =    -0.1380542292D+00 E(B2PLYPD3) =    -0.11567808622579D+03
 SCF Done:  E(UB2PLYPD3) =  -115.540026629     A.U. after    7 cycles
 E2(B2PLYPD3) =    -0.1380627058D+00 E(B2PLYPD3) =    -0.11567808933494D+03
 Optimization completed.
    -- Stationary point found.
 Normal termination of Gaussian 16 at Tue Jul 30 15:17:26 2019.

 ----------------------------------------------------------------------
 #N Geom=AllCheck Guess=TCheck SCRF=Check GenChk UB2PLYPD3(FC)/CC-pVTZ
 Freq
 ----------------------------------------------------------------------

 Structure from the checkpoint file:  "/localscratch/386879/Gau-4683.chk"
 -------------------
 Title Card Required
 -------------------
 Charge =  0 Multiplicity = 1

                         Standard orientation:
 ---------------------------------------------------------------------
 Center     Atomic      Atomic             Coordinates (Angstroms)
 Number     Number       Type             X           Y           Z
 ---------------------------------------------------------------------
      1          6           0        0.663678   -0.019760    0.000021
      2          1           0        1.029600   -0.535673    0.891103
      3          1           0        1.028524   -0.547334   -0.884612
      4          1           0        1.081489    0.983204   -0.006904
      5          8           0       -0.748170    0.121720    0.000024
      6          1           0       -1.136320   -0.755397    0.000095
 ---------------------------------------------------------------------

 SCF Done:  E(UB2PLYPD3) =  -115.540026629     A.U. after    1 cycles
 E2(B2PLYPD3) =    -0.1380627058D+00 E(B2PLYPD3) =    -0.11567808933498D+03
 E2(B2PLYPD3) =    -0.1380627058D+00 E(B2PLYPD3) =    -0.11567808933498D+03

 The electronic state is 1-A.
 Alpha  occ. eigenvalues --  -19.72038 -10.65413  -1.15777  -0.78428  -0.58348
 Alpha  occ. eigenvalues --   -0.51431  -0.49527  -0.40712  -0.34910
 Alpha virt. eigenvalues --    0.07566   0.11275   0.15729   0.15912   0.21231
 Alpha virt. eigenvalues --    0.30914   0.32612   0.42766   0.46526   0.51699
 Alpha virt. eigenvalues --    0.53005   0.53256   0.57915   0.59729   0.60814

  Beta  occ. eigenvalues --  -19.72038 -10.65413  -1.15777  -0.78428  -0.58348
  Beta  occ. eigenvalues --   -0.51431  -0.49527  -0.40712  -0.34910
  Beta virt. eigenvalues --    0.07566   0.11275   0.15729   0.15912   0.21231
  Beta virt. eigenvalues --    0.30914   0.32612   0.42766   0.46526   0.51699
  Beta virt. eigenvalues --    0.53005   0.53256   0.57915   0.59729   0.60814

 Mulliken charges and spin densities:
               1          2
     1  C   -0.046848  -0.000000
     2  H    0.057870   0.000000
     3  H    0.057860   0.000000
     4  H    0.096889   0.000000
     5  O   -0.376407   0.000000
     6  H    0.210636  -0.000000
 Sum of Mulliken charges =  -0.00000  -0.00000

 Dipole moment (field-independent basis, Debye):
    X=              0.8223    Y=             -1.4807    Z=             -0.0008  Tot=              1.6937
 Quadrupole moment (field-independent basis, Debye-Ang):
   XX=            -12.8094   YY=            -12.1316   ZZ=            -13.6827
   XY=              2.1971   XZ=             -0.0014   YZ=             -0.0007

  Exact polarizability:  20.232   0.658  18.415   0.003   0.000  16.959
 Approx polarizability:  20.171   0.591  19.931   0.003  -0.000  17.569

                      1                      2                      3
                      A                      A                      A
 Frequencies --    303.6070              1058.6690              1092.8638
 Red. masses --      1.0698                 2.7787                 1.4412
 Frc consts  --      0.0581                 1.8349                 1.0142
 IR Inten    --    110.1619               117.4088                 0.3014

                      4                      5                      6
                      A                      A                      A
 Frequencies --   1182.1598              1386.2346              1494.6711
 Red. masses --      1.2682                 1.2832                 1.1402
 Frc consts  --      1.0442                 1.4529                 1.5008
 IR Inten    --      0.7027                25.6263                 4.2895

                      7                      8                      9
                      A                      A                      A
 Frequencies --   1512.6475              1527.9154              3018.1081
 Red. masses --      1.0482                 1.0435                 1.0358
 Frc consts  --      1.4131                 1.4353                 5.5591
 IR Inten    --      1.9439                 3.7604                60.0482

                     10                     11                     12
                      A                      A                      A
 Frequencies --   3068.7141              3138.1220              3858.6654
 Red. masses --      1.1052                 1.0978                 1.0665
 Frc consts  --      6.1320                 6.3699                 9.3561
 IR Inten    --     62.8376                28.8167                28.4295

 - Thermochemistry -
 -------------------
 Temperature   298.150 Kelvin.  Pressure   1.00000 Atm.
 Atom     1 has atomic number  6 and mass  12.00000

 Molecular mass:    32.02621 amu.
 Principal axes and moments of inertia in atomic units:
                           1         2         3
     Eigenvalues --    13.97914  72.68443  75.31481
           X            0.99896   0.04554   0.00000
           Y           -0.04554   0.99896  -0.00001
           Z           -0.00000   0.00001   1.00000
 This molecule is an asymmetric top.
 Rotational symmetry number  1.
 Rotational temperatures (Kelvin)      6.19594     1.19164     1.15003
 Rotational constants (GHZ):         129.10249    24.82982    23.96263
 Zero-point vibrational energy     135431.5 (Joules/Mol)
                                   32.36890 (Kcal/Mol)
 Warning -- explicit consideration of   1 degrees of freedom as
           vibrations may cause significant error
 Vibrational temperatures:    436.82  1523.19  1572.39  1700.86  1994.48
          (Kelvin)           2150.50  2176.36  2198.33  4342.38  4415.20
                             4515.06  5551.76

 Zero-point correction=                           0.051583 (Hartree/Particle)
 Thermal correction to Energy=                    0.054926
 Thermal correction to Enthalpy=                  0.055870
 Thermal correction to Gibbs Free Energy=         0.028820
 Sum of electronic and zero-point Energies=           -115.626506
 Sum of electronic and thermal Energies=              -115.623163
 Sum of electronic and thermal Enthalpies=            -115.622219
 Sum of electronic and thermal Free Energies=         -115.649269

                     E (Thermal)             CV                S
                      KCal/Mol        Cal/Mol-Kelvin    Cal/Mol-Kelvin
 Total                   34.467              8.776             56.932
 Electronic               0.000              0.000              0.000
 Translational            0.889              2.981             36.324
 Rotational               0.889              2.981             18.976
 Vibrational             32.689              2.814              1.632
 Vibration     1          0.695              1.667              1.397

                           ! Non-Optimized Parameters !
 Normal termination of Gaussian 16 at Tue Jul 30 15:18:50 2019.
