 Gaussian 16, Revision B.01,
 Gaussian 16:  ES64L-G16RevB.01 20-Dec-2017

 -----------------------------------------------
 # opt=maxcyc=500 freq=noraman uB2PLYPD3/cc-pvtz
 -----------------------------------------------

 -------------------
 Title Card Required
 -------------------
 Symbolic Z-matrix:
 Charge =  0 Multiplicity = 2

 SCF Done:  E(UB2PLYPD3) =  -189.950554580     A.U. after   22 cycles
 E2(B2PLYPD3) =    -0.2039088982D+00 E(B2PLYPD3) =    -0.19015446347793D+03
 SCF Done:  E(UB2PLYPD3) =  -189.950319288     A.U. after   16 cycles
 E2(B2PLYPD3) =    -0.2044977348D+00 E(B2PLYPD3) =    -0.19015481702285D+03
 SCF Done:  E(UB2PLYPD3) =  -189.950125064     A.U. after   15 cycles
 E2(B2PLYPD3) =    -0.2047297407D+00 E(B2PLYPD3) =    -0.19015485480426D+03
 SCF Done:  E(UB2PLYPD3) =  -189.950121141     A.U. after   13 cycles
 E2(B2PLYPD3) =    -0.2047351317D+00 E(B2PLYPD3) =    -0.19015485627277D+03
 Optimization completed.
    -- Stationary point found.
 Normal termination of Gaussian 16 at Sat Jun  1 01:20:33 2019.

 ----------------------------------------------------------------------
 #N Geom=AllCheck Guess=TCheck SCRF=Check GenChk UB2PLYPD3(FC)/CC-pVTZ
 Freq
 ----------------------------------------------------------------------

 Structure from the checkpoint file:  "/localscratch/339542/Gau-78147.chk"
 -------------------
 Title Card Required
 -------------------
 Charge =  0 Multiplicity = 2

                         Standard orientation:
 ---------------------------------------------------------------------
 Center     Atomic      Atomic             Coordinates (Angstroms)
 Number     Number       Type             X           Y           Z
 ---------------------------------------------------------------------
      1          6           0        1.089717   -0.184737   -0.000025
      2          1           0        1.134691   -0.803509   -0.890971
      3          1           0        1.872360    0.567315   -0.004823
      4          1           0        1.139060   -0.796268    0.895732
      5          8           0       -0.155271    0.547706    0.000016
      6          8           0       -1.180280   -0.280095    0.000010
 ---------------------------------------------------------------------

 SCF Done:  E(UB2PLYPD3) =  -189.950121141     A.U. after    1 cycles
 E2(B2PLYPD3) =    -0.2047351308D+00 E(B2PLYPD3) =    -0.19015485627193D+03
 E2(B2PLYPD3) =    -0.2047351308D+00 E(B2PLYPD3) =    -0.19015485627193D+03

 The electronic state is 2-A.
 Alpha  occ. eigenvalues --  -19.84230 -19.81496 -10.68154  -1.35005  -1.01953
 Alpha  occ. eigenvalues --   -0.79839  -0.61919  -0.59362  -0.58601  -0.49891
 Alpha  occ. eigenvalues --   -0.47675  -0.37457  -0.37227
 Alpha virt. eigenvalues --    0.08239   0.13414   0.13930   0.14807   0.22219
 Alpha virt. eigenvalues --    0.29299   0.30451   0.40430   0.48905   0.50162
 Alpha virt. eigenvalues --    0.50185   0.53791   0.56256   0.58222   0.62509

  Beta  occ. eigenvalues --  -19.83182 -19.78832 -10.68210  -1.31084  -0.96569
  Beta  occ. eigenvalues --   -0.78250  -0.57777  -0.57572  -0.55472  -0.47031
  Beta  occ. eigenvalues --   -0.41821  -0.35139
  Beta virt. eigenvalues --   -0.02111   0.08275   0.13944   0.14015   0.15378
  Beta virt. eigenvalues --    0.24395   0.29534   0.30526   0.40681   0.49000
  Beta virt. eigenvalues --    0.50221   0.50258   0.53934   0.58547   0.58652

 Mulliken charges and spin densities:
               1          2
     1  C   -0.063968  -0.024844
     2  H    0.098901   0.011961
     3  H    0.099958  -0.002086
     4  H    0.098867   0.012013
     5  O   -0.094042   0.219667
     6  O   -0.139716   0.783288
 Sum of Mulliken charges =  -0.00000   1.00000

 Dipole moment (field-independent basis, Debye):
    X=              2.5255    Y=             -0.5303    Z=             -0.0004  Tot=              2.5806
 Quadrupole moment (field-independent basis, Debye-Ang):
   XX=            -17.1864   YY=            -18.2062   ZZ=            -16.8956
   XY=             -0.1491   XZ=             -0.0004   YZ=             -0.0001

  Exact polarizability:  29.835   3.015  19.777   0.003   0.000  17.347
 Approx polarizability:  28.985   4.313  22.745   0.003  -0.000  18.802

                      1                      2                      3
                      A                      A                      A
 Frequencies --    134.5580               493.9979               931.8665
 Red. masses --      1.3173                 3.7152                 5.0359
 Frc consts  --      0.0141                 0.5342                 2.5766
 IR Inten    --      0.0865                 6.7343                15.5086

                      4                      5                      6
                      A                      A                      A
 Frequencies --   1142.1349              1175.9122              1232.6951
 Red. masses --      1.2451                 2.5357                 2.8986
 Frc consts  --      0.9570                 2.0658                 2.5951
 IR Inten    --      0.8257                 0.7810                12.0794

                      7                      8                      9
                      A                      A                      A
 Frequencies --   1454.1467              1489.3158              1501.2613
 Red. masses --      1.1655                 1.0481                 1.0475
 Frc consts  --      1.4520                 1.3697                 1.3909
 IR Inten    --      1.9852                 8.7932                 8.7028

                     10                     11                     12
                      A                      A                      A
 Frequencies --   3077.3311              3174.3318              3183.9095
 Red. masses --      1.0267                 1.1087                 1.1078
 Frc consts  --      5.7284                 6.5824                 6.6167
 IR Inten    --     15.3554                11.3029                 8.0784

 - Thermochemistry -
 -------------------
 Temperature   298.150 Kelvin.  Pressure   1.00000 Atm.
 Atom     1 has atomic number  6 and mass  12.00000

 Molecular mass:    47.01330 amu.
 Principal axes and moments of inertia in atomic units:
                           1         2         3
     Eigenvalues --    34.43485 158.29065 181.23611
           X            0.99971  -0.02419   0.00001
           Y            0.02419   0.99971  -0.00001
           Z           -0.00001   0.00001   1.00000
 This molecule is an asymmetric top.
 Rotational symmetry number  1.
 Rotational temperatures (Kelvin)      2.51530     0.54718     0.47791
 Rotational constants (GHZ):          52.41032    11.40144     9.95796
 Zero-point vibrational energy     113594.2 (Joules/Mol)
                                   27.14966 (Kcal/Mol)
 Warning -- explicit consideration of   2 degrees of freedom as
           vibrations may cause significant error
 Vibrational temperatures:    193.60   710.75  1340.75  1643.28  1691.88
          (Kelvin)           1773.57  2092.19  2142.79  2159.98  4427.59
                             4567.16  4580.94

 Zero-point correction=                           0.043266 (Hartree/Particle)
 Thermal correction to Energy=                    0.047116
 Thermal correction to Enthalpy=                  0.048060
 Thermal correction to Gibbs Free Energy=         0.017550
 Sum of electronic and zero-point Energies=           -190.111591
 Sum of electronic and thermal Energies=              -190.107741
 Sum of electronic and thermal Enthalpies=            -190.106797
 Sum of electronic and thermal Free Energies=         -190.137306

                     E (Thermal)             CV                S
                      KCal/Mol        Cal/Mol-Kelvin    Cal/Mol-Kelvin
 Total                   29.565             10.494             64.212
 Electronic               0.000              0.000              1.377
 Translational            0.889              2.981             37.468
 Rotational               0.889              2.981             21.518
 Vibrational             27.788              4.532              3.849
 Vibration     1          0.613              1.919              2.880
 Vibration     2          0.850              1.263              0.673

                           ! Non-Optimized Parameters !
 Normal termination of Gaussian 16 at Sat Jun  1 01:22:48 2019.
