 Gaussian 16, Revision B.01,
 Gaussian 16:  ES64L-G16RevB.01 20-Dec-2017

 -----------------------------------------------
 # opt=maxcyc=500 freq=noraman uB2PLYPD3/cc-pvtz
 -----------------------------------------------

 -------------------
 Title Card Required
 -------------------
 Symbolic Z-matrix:
 Charge =  0 Multiplicity = 1

 SCF Done:  E(UB2PLYPD3) =  -40.4231195591     A.U. after    8 cycles
 E2(B2PLYPD3) =    -0.6405549354D-01 E(B2PLYPD3) =    -0.40487175052664D+02
 Optimization completed.
    -- Stationary point found.
 Normal termination of Gaussian 16 at Sat Jun  1 01:28:06 2019.

 ----------------------------------------------------------------------
 #N Geom=AllCheck Guess=TCheck SCRF=Check GenChk UB2PLYPD3(FC)/CC-pVTZ
 Freq
 ----------------------------------------------------------------------

 Structure from the checkpoint file:  "/localscratch/339542/Gau-86422.chk"
 -------------------
 Title Card Required
 -------------------
 Charge =  0 Multiplicity = 1

                         Standard orientation:
 ---------------------------------------------------------------------
 Center     Atomic      Atomic             Coordinates (Angstroms)
 Number     Number       Type             X           Y           Z
 ---------------------------------------------------------------------
      1          6           0        0.000004    0.000011   -0.000018
      2          1           0        0.717253    0.816723    0.014861
      3          1           0       -0.412018   -0.138603    0.996262
      4          1           0        0.497349   -0.913279   -0.316649
      5          1           0       -0.802606    0.235092   -0.694367
 ---------------------------------------------------------------------

 SCF Done:  E(UB2PLYPD3) =  -40.4231195591     A.U. after    1 cycles
 E2(B2PLYPD3) =    -0.6405549348D-01 E(B2PLYPD3) =    -0.40487175052603D+02
 E2(B2PLYPD3) =    -0.6405549348D-01 E(B2PLYPD3) =    -0.40487175052603D+02

 The electronic state is 1-A.
 Alpha  occ. eigenvalues --  -10.59355  -0.79970  -0.45772  -0.45770  -0.45768
 Alpha virt. eigenvalues --    0.08535   0.16630   0.16631   0.16631   0.28863
 Alpha virt. eigenvalues --    0.28864   0.28865   0.54053   0.54055   0.54056
 Alpha virt. eigenvalues --    0.54317   0.57946   0.57949   0.65435   0.96041

  Beta  occ. eigenvalues --  -10.59355  -0.79970  -0.45772  -0.45770  -0.45768
  Beta virt. eigenvalues --    0.08535   0.16630   0.16631   0.16631   0.28863
  Beta virt. eigenvalues --    0.28864   0.28865   0.54053   0.54055   0.54056
  Beta virt. eigenvalues --    0.54317   0.57946   0.57949   0.65435   0.96041

 Mulliken charges and spin densities:
               1          2
     1  C   -0.400046   0.000000
     2  H    0.100005  -0.000000
     3  H    0.100020  -0.000000
     4  H    0.099999  -0.000000
     5  H    0.100023   0.000000
 Sum of Mulliken charges =  -0.00000   0.00000

 Dipole moment (field-independent basis, Debye):
    X=             -0.0001    Y=             -0.0000    Z=              0.0001  Tot=              0.0001
 Quadrupole moment (field-independent basis, Debye-Ang):
   XX=             -8.4412   YY=             -8.4415   ZZ=             -8.4420
   XY=              0.0000   XZ=              0.0000   YZ=             -0.0000

  Exact polarizability:  15.071  -0.000  15.071  -0.000   0.000  15.069
 Approx polarizability:  15.517  -0.000  15.517  -0.000   0.000  15.515

                      1                      2                      3
                      A                      A                      A
 Frequencies --   1354.0143              1354.0701              1354.1224
 Red. masses --      1.1798                 1.1798                 1.1798
 Frc consts  --      1.2744                 1.2745                 1.2746
 IR Inten    --     11.8727                11.8727                11.8679

                      4                      5                      6
                      A                      A                      A
 Frequencies --   1576.3831              1576.4282              3047.7745
 Red. masses --      1.0078                 1.0078                 1.0078
 Frc consts  --      1.4756                 1.4757                 5.5157
 IR Inten    --      0.0000                 0.0000                 0.0002

                      7                      8                      9
                      A                      A                      A
 Frequencies --   3159.5343              3159.8731              3160.0991
 Red. masses --      1.1010                 1.1010                 1.1009
 Frc consts  --      6.4754                 6.4768                 6.4777
 IR Inten    --     22.7046                22.6971                22.7032

 - Thermochemistry -
 -------------------
 Temperature   298.150 Kelvin.  Pressure   1.00000 Atm.
 Atom     1 has atomic number  6 and mass  12.00000

 Molecular mass:    16.03130 amu.
 Principal axes and moments of inertia in atomic units:
                           1         2         3
     Eigenvalues --    11.33963  11.34017  11.34169
           X            1.00000  -0.00000   0.00000
           Y            0.00000   1.00000   0.00000
           Z           -0.00000  -0.00000   1.00000
 This molecule is an asymmetric top.
 Rotational symmetry number  1.
 Rotational temperatures (Kelvin)      7.63816     7.63780     7.63678
 Rotational constants (GHZ):         159.15339   159.14588   159.12456
 Zero-point vibrational energy     118085.2 (Joules/Mol)
                                   28.22303 (Kcal/Mol)
 Vibrational temperatures:   1948.12  1948.20  1948.28  2268.06  2268.13
          (Kelvin)           4385.07  4545.87  4546.35  4546.68

 Zero-point correction=                           0.044976 (Hartree/Particle)
 Thermal correction to Energy=                    0.047843
 Thermal correction to Enthalpy=                  0.048787
 Thermal correction to Gibbs Free Energy=         0.025323
 Sum of electronic and zero-point Energies=            -40.442199
 Sum of electronic and thermal Energies=               -40.439332
 Sum of electronic and thermal Enthalpies=             -40.438388
 Sum of electronic and thermal Free Energies=          -40.461852

                     E (Thermal)             CV                S
                      KCal/Mol        Cal/Mol-Kelvin    Cal/Mol-Kelvin
 Total                   30.022              6.447             49.385
 Electronic               0.000              0.000              0.000
 Translational            0.889              2.981             34.261
 Rotational               0.889              2.981             15.041
 Vibrational             28.244              0.486              0.082

 Optimization completed.
    -- Stationary point found.
 Normal termination of Gaussian 16 at Sat Jun  1 01:28:41 2019.
