 Gaussian 16, Revision B.01,
 Gaussian 16:  ES64L-G16RevB.01 20-Dec-2017

 -----------------------------------------------
 # opt=maxcyc=500 freq=noraman uB2PLYPD3/cc-pvtz
 -----------------------------------------------

 -------------------
 Title Card Required
 -------------------
 Symbolic Z-matrix:
 Charge =  0 Multiplicity = 2

 SCF Done:  E(UB2PLYPD3) = -0.498614183072     A.U. after    6 cycles
 E2(B2PLYPD3) =     0.0000000000D+00 E(B2PLYPD3) =    -0.49861418307151D+00
 Optimization completed.
    -- Stationary point found.
 Normal termination of Gaussian 16 at Sat Jun  1 01:29:05 2019.

 ----------------------------------------------------------------------
 #N Geom=AllCheck Guess=TCheck SCRF=Check GenChk UB2PLYPD3(FC)/CC-pVTZ
 Freq
 ----------------------------------------------------------------------

 Structure from the checkpoint file:  "/localscratch/339542/Gau-4007.chk"
 -------------------
 Title Card Required
 -------------------
 Charge =  0 Multiplicity = 2

                         Standard orientation:
 ---------------------------------------------------------------------
 Center     Atomic      Atomic             Coordinates (Angstroms)
 Number     Number       Type             X           Y           Z
 ---------------------------------------------------------------------
      1          1           0        0.000000    0.000000    0.000000
 ---------------------------------------------------------------------

 SCF Done:  E(UB2PLYPD3) = -0.498614183072     A.U. after    1 cycles
 E2(B2PLYPD3) =     0.0000000000D+00 E(B2PLYPD3) =    -0.49861418307151D+00
 E2(B2PLYPD3) =     0.0000000000D+00 E(B2PLYPD3) =    -0.49861418307151D+00

 The electronic state is 2-A1G.
 Alpha  occ. eigenvalues --   -0.39131
 Alpha virt. eigenvalues --    0.29120   0.64447   0.64447   0.64447   2.27996
 Alpha virt. eigenvalues --    3.26287   3.26287   3.26287   3.26287   3.26287
 Alpha virt. eigenvalues --    3.65151   3.65151   3.65151

 Mulliken charges and spin densities:
               1          2
     1  H   -0.000000   1.000000
 Sum of Mulliken charges =  -0.00000   1.00000

 Dipole moment (field-independent basis, Debye):
    X=              0.0000    Y=              0.0000    Z=              0.0000  Tot=              0.0000
 Quadrupole moment (field-independent basis, Debye-Ang):
   XX=             -1.3696   YY=             -1.3696   ZZ=             -1.3696
   XY=             -0.0000   XZ=             -0.0000   YZ=             -0.0000

  Exact polarizability:   1.891   0.000   1.891   0.000   0.000   1.891
 Approx polarizability:   1.456  -0.000   1.456  -0.000  -0.000   1.456

 - Thermochemistry -
 -------------------
 Temperature   298.150 Kelvin.  Pressure   1.00000 Atm.
 Atom     1 has atomic number  1 and mass   1.00783
 Molecular mass:     1.00783 amu.
 Zero-point vibrational energy          0.0 (Joules/Mol)
                                    0.00000 (Kcal/Mol)
 Vibrational temperatures:
          (Kelvin)

 Zero-point correction=                           0.000000 (Hartree/Particle)
 Thermal correction to Energy=                    0.001416
 Thermal correction to Enthalpy=                  0.002360
 Thermal correction to Gibbs Free Energy=        -0.010654
 Sum of electronic and zero-point Energies=             -0.498614
 Sum of electronic and thermal Energies=                -0.497198
 Sum of electronic and thermal Enthalpies=              -0.496254
 Sum of electronic and thermal Free Energies=           -0.509268

                     E (Thermal)             CV                S
                      KCal/Mol        Cal/Mol-Kelvin    Cal/Mol-Kelvin
 Total                    0.889              2.981             27.392
 Electronic               0.000              0.000              1.377
 Translational            0.889              2.981             26.014
 Rotational               0.000              0.000              0.000
 Vibrational              0.000              0.000              0.000

 Optimization completed.
    -- Stationary point found.
 Normal termination of Gaussian 16 at Sat Jun  1 01:29:13 2019.
