 Gaussian 16, Revision B.01,
 Gaussian 16:  ES64L-G16RevB.01 20-Dec-2017

 -----------------------------------------------
 # opt=maxcyc=500 freq=noraman uB2PLYPD3/cc-pvtz
 -----------------------------------------------

 -------------------
 Title Card Required
 -------------------
 Symbolic Z-matrix:
 Charge =  0 Multiplicity = 1

 SCF Done:  E(UB2PLYPD3) =  -1.15985049666     A.U. after    6 cycles
 E2(B2PLYPD3) =    -0.1013934703D-01 E(B2PLYPD3) =    -0.11699898436888D+01
 SCF Done:  E(UB2PLYPD3) =  -1.15984884973     A.U. after    4 cycles
 E2(B2PLYPD3) =    -0.1014158821D-01 E(B2PLYPD3) =    -0.11699904379417D+01
 Optimization completed.
    -- Stationary point found.
 Normal termination of Gaussian 16 at Sat Jun  1 01:28:51 2019.

 ----------------------------------------------------------------------
 #N Geom=AllCheck Guess=TCheck SCRF=Check GenChk UB2PLYPD3(FC)/CC-pVTZ
 Freq
 ----------------------------------------------------------------------

 Structure from the checkpoint file:  "/localscratch/339542/Gau-94573.chk"
 -------------------
 Title Card Required
 -------------------
 Charge =  0 Multiplicity = 1

                         Standard orientation:
 ---------------------------------------------------------------------
 Center     Atomic      Atomic             Coordinates (Angstroms)
 Number     Number       Type             X           Y           Z
 ---------------------------------------------------------------------
      1          1           0        0.000000    0.000000    0.369959
      2          1           0        0.000000    0.000000   -0.369959
 ---------------------------------------------------------------------

 SCF Done:  E(UB2PLYPD3) =  -1.15984884973     A.U. after    1 cycles
 E2(B2PLYPD3) =    -0.1014158821D-01 E(B2PLYPD3) =    -0.11699904379431D+01
 E2(B2PLYPD3) =    -0.1014158821D-01 E(B2PLYPD3) =    -0.11699904379431D+01

 The electronic state is 1-SGG.
 Alpha  occ. eigenvalues --   -0.50118
 Alpha virt. eigenvalues --    0.10407   0.23971   0.54199   0.58655   0.58655
 Alpha virt. eigenvalues --    0.98805   1.01288   1.01288   1.43413   2.15890
 Alpha virt. eigenvalues --    2.22024   3.00333   3.00333   3.21702   3.21702

  Beta  occ. eigenvalues --   -0.50118
  Beta virt. eigenvalues --    0.10407   0.23971   0.54199   0.58655   0.58655
  Beta virt. eigenvalues --    0.98805   1.01288   1.01288   1.43413   2.15890
  Beta virt. eigenvalues --    2.22024   3.00333   3.00333   3.21702   3.21702

 Mulliken charges and spin densities:
               1          2
     1  H    0.000000   0.000000
     2  H    0.000000   0.000000
 Sum of Mulliken charges =   0.00000   0.00000

 Dipole moment (field-independent basis, Debye):
    X=              0.0000    Y=             -0.0000    Z=             -0.0000  Tot=              0.0000
 Quadrupole moment (field-independent basis, Debye-Ang):
   XX=             -2.0977   YY=             -2.0977   ZZ=             -1.5084
   XY=             -0.0000   XZ=             -0.0000   YZ=              0.0000

  Exact polarizability:   2.594  -0.000   2.594   0.000  -0.000   6.690
 Approx polarizability:   2.426  -0.000   2.426  -0.000  -0.000   6.437

                      1
                     SGG
 Frequencies --   4466.6958
 Red. masses --      1.0078
 Frc consts  --     11.8470
 IR Inten    --      0.0000

 - Thermochemistry -
 -------------------
 Temperature   298.150 Kelvin.  Pressure   1.00000 Atm.
 Atom     1 has atomic number  1 and mass   1.00783

 Molecular mass:     2.01565 amu.
 Principal axes and moments of inertia in atomic units:
                           1         2         3
     Eigenvalues --    -0.00000   0.98519   0.98519
           X           -0.00000   1.00000  -0.00000
           Y            0.00000   0.00000   1.00000
           Z            1.00000   0.00000  -0.00000
 This molecule is a prolate symmetric top.
 Rotational symmetry number  2.
 Rotational temperature (Kelvin)     87.91590
 Rotational constant (GHZ):        1831.869996
 Zero-point vibrational energy      26716.8 (Joules/Mol)
                                    6.38546 (Kcal/Mol)
 Vibrational temperatures:   6426.58
          (Kelvin)

 Zero-point correction=                           0.010176 (Hartree/Particle)
 Thermal correction to Energy=                    0.012536
 Thermal correction to Enthalpy=                  0.013481
 Thermal correction to Gibbs Free Energy=        -0.001304
 Sum of electronic and zero-point Energies=             -1.159815
 Sum of electronic and thermal Energies=                -1.157454
 Sum of electronic and thermal Enthalpies=              -1.156510
 Sum of electronic and thermal Free Energies=           -1.171295

                     E (Thermal)             CV                S
                      KCal/Mol        Cal/Mol-Kelvin    Cal/Mol-Kelvin
 Total                    7.867              4.968             31.117
 Electronic               0.000              0.000              0.000
 Translational            0.889              2.981             28.080
 Rotational               0.592              1.987              3.037
 Vibrational              6.385              0.000              0.000

 Optimization completed.
    -- Stationary point found.
 Normal termination of Gaussian 16 at Sat Jun  1 01:29:00 2019.
