 Gaussian 16, Revision B.01,
 Gaussian 16:  ES64L-G16RevB.01 20-Dec-2017

 -----------------------------------------------
 # opt=maxcyc=500 freq=noraman uB2PLYPD3/cc-pvtz
 -----------------------------------------------

 -------------------
 Title Card Required
 -------------------
 Symbolic Z-matrix:
 Charge =  0 Multiplicity = 2

 SCF Done:  E(UB2PLYPD3) =  -157.447443593     A.U. after   14 cycles
 E2(B2PLYPD3) =    -0.2228481614D+00 E(B2PLYPD3) =    -0.15767029175472D+03
 SCF Done:  E(UB2PLYPD3) =  -157.460467504     A.U. after   13 cycles
 E2(B2PLYPD3) =    -0.2215720744D+00 E(B2PLYPD3) =    -0.15768203957791D+03
 SCF Done:  E(UB2PLYPD3) =  -157.463021567     A.U. after   12 cycles
 E2(B2PLYPD3) =    -0.2215384367D+00 E(B2PLYPD3) =    -0.15768456000377D+03
 SCF Done:  E(UB2PLYPD3) =  -157.463436900     A.U. after   11 cycles
 E2(B2PLYPD3) =    -0.2216038047D+00 E(B2PLYPD3) =    -0.15768504070517D+03
 SCF Done:  E(UB2PLYPD3) =  -157.463488508     A.U. after    9 cycles
 E2(B2PLYPD3) =    -0.2215853146D+00 E(B2PLYPD3) =    -0.15768507382255D+03
 SCF Done:  E(UB2PLYPD3) =  -157.463514099     A.U. after   10 cycles
 E2(B2PLYPD3) =    -0.2215769398D+00 E(B2PLYPD3) =    -0.15768509103834D+03
 SCF Done:  E(UB2PLYPD3) =  -157.463525282     A.U. after    9 cycles
 E2(B2PLYPD3) =    -0.2215708557D+00 E(B2PLYPD3) =    -0.15768509613800D+03
 SCF Done:  E(UB2PLYPD3) =  -157.463547885     A.U. after   11 cycles
 E2(B2PLYPD3) =    -0.2215636649D+00 E(B2PLYPD3) =    -0.15768511155014D+03
 SCF Done:  E(UB2PLYPD3) =  -157.463579040     A.U. after   11 cycles
 E2(B2PLYPD3) =    -0.2215573685D+00 E(B2PLYPD3) =    -0.15768513640824D+03
 SCF Done:  E(UB2PLYPD3) =  -157.463600076     A.U. after   11 cycles
 E2(B2PLYPD3) =    -0.2215543524D+00 E(B2PLYPD3) =    -0.15768515442818D+03
 SCF Done:  E(UB2PLYPD3) =  -157.463765911     A.U. after   14 cycles
 E2(B2PLYPD3) =    -0.2215655677D+00 E(B2PLYPD3) =    -0.15768533147878D+03
 SCF Done:  E(UB2PLYPD3) =  -157.448138154     A.U. after   11 cycles
 E2(B2PLYPD3) =    -0.2218249064D+00 E(B2PLYPD3) =    -0.15766996306028D+03
 SCF Done:  E(UB2PLYPD3) =  -157.463924788     A.U. after   12 cycles
 E2(B2PLYPD3) =    -0.2215430526D+00 E(B2PLYPD3) =    -0.15768546784039D+03
 SCF Done:  E(UB2PLYPD3) =  -157.463948179     A.U. after   11 cycles
 E2(B2PLYPD3) =    -0.2215513513D+00 E(B2PLYPD3) =    -0.15768549953073D+03
 SCF Done:  E(UB2PLYPD3) =  -157.463989595     A.U. after   10 cycles
 E2(B2PLYPD3) =    -0.2215380491D+00 E(B2PLYPD3) =    -0.15768552764444D+03
 SCF Done:  E(UB2PLYPD3) =  -157.463982335     A.U. after    8 cycles
 E2(B2PLYPD3) =    -0.2215486605D+00 E(B2PLYPD3) =    -0.15768553099509D+03
 SCF Done:  E(UB2PLYPD3) =  -157.463985864     A.U. after    7 cycles
 E2(B2PLYPD3) =    -0.2215455699D+00 E(B2PLYPD3) =    -0.15768553143380D+03
 SCF Done:  E(UB2PLYPD3) =  -157.463986827     A.U. after    7 cycles
 E2(B2PLYPD3) =    -0.2215447245D+00 E(B2PLYPD3) =    -0.15768553155131D+03
 Optimization completed.
    -- Stationary point found.
 Normal termination of Gaussian 16 at Sat Jun  1 02:32:17 2019.

 ----------------------------------------------------------------------
 #N Geom=AllCheck Guess=TCheck SCRF=Check GenChk UB2PLYPD3(FC)/CC-pVTZ
 Freq
 ----------------------------------------------------------------------

 Structure from the checkpoint file:  "/localscratch/339542/Gau-86234.chk"
 -------------------
 Title Card Required
 -------------------
 Charge =  0 Multiplicity = 2

                         Standard orientation:
 ---------------------------------------------------------------------
 Center     Atomic      Atomic             Coordinates (Angstroms)
 Number     Number       Type             X           Y           Z
 ---------------------------------------------------------------------
      1          6           0        1.263355   -0.676971    0.102202
      2          6           0       -0.000007    0.058550   -0.351679
      3          1           0       -0.000108    0.051976   -1.452473
      4          1           0        1.283698   -1.694086   -0.288107
      5          1           0        2.161527   -0.164942   -0.241817
      6          1           0        1.302812   -0.730459    1.190523
      7          6           0       -0.000262    1.475893    0.102572
      8          6           0       -1.263123   -0.677397    0.102347
      9          1           0       -0.925481    2.024130    0.198136
     10          1           0        0.924848    2.023989    0.199948
     11          1           0       -1.302324   -0.731030    1.190664
     12          1           0       -2.161511   -0.165569   -0.241414
     13          1           0       -1.283244   -1.694466   -0.288108
 ---------------------------------------------------------------------

 SCF Done:  E(UB2PLYPD3) =  -157.463986827     A.U. after    1 cycles
 E2(B2PLYPD3) =    -0.2215447262D+00 E(B2PLYPD3) =    -0.15768553155297D+03
 E2(B2PLYPD3) =    -0.2215447262D+00 E(B2PLYPD3) =    -0.15768553155297D+03

 The electronic state is 2-A.
 Alpha  occ. eigenvalues --  -10.61873 -10.61264 -10.59875 -10.59874  -0.92534
 Alpha  occ. eigenvalues --   -0.78803  -0.78068  -0.64724  -0.53269  -0.51364
 Alpha  occ. eigenvalues --   -0.50307  -0.45037  -0.43428  -0.41007  -0.40129
 Alpha  occ. eigenvalues --   -0.39114  -0.26301
 Alpha virt. eigenvalues --    0.08021   0.11910   0.12247   0.12557   0.14698
 Alpha virt. eigenvalues --    0.15149   0.16136   0.19230   0.20209   0.21026
 Alpha virt. eigenvalues --    0.25347   0.27486   0.29773   0.32623   0.34883

  Beta  occ. eigenvalues --  -10.62015 -10.59824 -10.59823 -10.59564  -0.91550
  Beta  occ. eigenvalues --   -0.78713  -0.74565  -0.63285  -0.52408  -0.50688
  Beta  occ. eigenvalues --   -0.50034  -0.44984  -0.43141  -0.40070  -0.39106
  Beta  occ. eigenvalues --   -0.38938
  Beta virt. eigenvalues --    0.01821   0.08339   0.11943   0.12477   0.13200
  Beta virt. eigenvalues --    0.14973   0.15301   0.16335   0.19250   0.20269
  Beta virt. eigenvalues --    0.21106   0.25685   0.27636   0.29857   0.32973

 Mulliken charges and spin densities:
               1          2
     1  C   -0.297809   0.009848
     2  C   -0.002893  -0.073374
     3  H    0.096917   0.047716
     4  H    0.095620   0.001846
     5  H    0.096258  -0.000842
     6  H    0.093590   0.003204
     7  C   -0.317724   1.087541
     8  C   -0.297767   0.009903
     9  H    0.124172  -0.045034
    10  H    0.124186  -0.045043
    11  H    0.093587   0.003208
    12  H    0.096249  -0.000845
    13  H    0.095615   0.001872
 Sum of Mulliken charges =  -0.00000   1.00000

 Dipole moment (field-independent basis, Debye):
    X=              0.0001    Y=             -0.1272    Z=             -0.2346  Tot=              0.2669
 Quadrupole moment (field-independent basis, Debye-Ang):
   XX=            -27.7476   YY=            -28.1301   ZZ=            -28.4949
   XY=             -0.0002   XZ=              0.0015   YZ=              0.1466

  Exact polarizability:  51.678   0.001  52.081   0.002   0.972  42.848
 Approx polarizability:  52.915   0.001  53.599   0.003   1.106  50.571

                      1                      2                      3
                      A                      A                      A
 Frequencies --    131.5375               232.1907               261.1634
 Red. masses --      1.0223                 1.0327                 1.0628
 Frc consts  --      0.0104                 0.0328                 0.0427
 IR Inten    --      0.0620                 0.0038                 0.0888

                      4                      5                      6
                      A                      A                      A
 Frequencies --    360.8235               373.9307               409.5405
 Red. masses --      2.0444                 2.0958                 1.5529
 Frc consts  --      0.1568                 0.1727                 0.1535
 IR Inten    --      0.4742                 0.1673                12.7712

                      7                      8                      9
                      A                      A                      A
 Frequencies --    539.1248               823.4310               914.6784
 Red. masses --      1.7423                 2.8451                 1.2570
 Frc consts  --      0.2984                 1.1366                 0.6196
 IR Inten    --     28.3631                 0.0250                 0.3200

                     10                     11                     12
                      A                      A                      A
 Frequencies --    953.3147               978.2209               995.1225
 Red. masses --      1.2048                 1.5877                 1.8440
 Frc consts  --      0.6451                 0.8952                 1.0759
 IR Inten    --      0.7687                 0.0015                 0.6627

                     13                     14                     15
                      A                      A                      A
 Frequencies --   1100.0753              1193.8458              1216.6989
 Red. masses --      1.4702                 1.7659                 1.7333
 Frc consts  --      1.0482                 1.4829                 1.5118
 IR Inten    --      1.0346                 0.4918                 0.8233

                     16                     17                     18
                      A                      A                      A
 Frequencies --   1332.1741              1340.9548              1407.2363
 Red. masses --      1.6810                 1.4911                 1.2372
 Frc consts  --      1.7577                 1.5797                 1.4435
 IR Inten    --      3.4860                 0.7957                 4.4716

                     19                     20                     21
                      A                      A                      A
 Frequencies --   1422.7830              1481.4892              1501.6602
 Red. masses --      1.2276                 1.1656                 1.0418
 Frc consts  --      1.4641                 1.5073                 1.3841
 IR Inten    --      3.6989                 2.0900                 0.1223

                     22                     23                     24
                      A                      A                      A
 Frequencies --   1505.7056              1516.0193              1524.2860
 Red. masses --      1.0511                 1.0447                 1.0668
 Frc consts  --      1.4041                 1.4146                 1.4603
 IR Inten    --      2.5534                 6.1029                 8.0232

                     25                     26                     27
                      A                      A                      A
 Frequencies --   2938.1913              3043.2625              3046.3419
 Red. masses --      1.0786                 1.0340                 1.0347
 Frc consts  --      5.4863                 5.6424                 5.6575
 IR Inten    --     28.1110                34.7517                17.9494

                     28                     29                     30
                      A                      A                      A
 Frequencies --   3112.9141              3116.6326              3117.3892
 Red. masses --      1.1023                 1.1015                 1.1025
 Frc consts  --      6.2934                 6.3039                 6.3125
 IR Inten    --      4.9799                49.3179                17.7295

                     31                     32                     33
                      A                      A                      A
 Frequencies --   3119.8262              3160.3838              3264.5467
 Red. masses --      1.1017                 1.0508                 1.1186
 Frc consts  --      6.3179                 6.1838                 7.0237
 IR Inten    --     49.4463                16.6825                14.2391

 - Thermochemistry -
 -------------------
 Temperature   298.150 Kelvin.  Pressure   1.00000 Atm.
 Atom     1 has atomic number  6 and mass  12.00000

 Molecular mass:    57.07043 amu.
 Principal axes and moments of inertia in atomic units:
                           1         2         3
     Eigenvalues --   212.66529 226.36957 387.55158
           X            1.00000   0.00001   0.00002
           Y           -0.00001   1.00000   0.00091
           Z           -0.00002  -0.00091   1.00000
 This molecule is an asymmetric top.
 Rotational symmetry number  1.
 Rotational temperatures (Kelvin)      0.40728     0.38262     0.22349
 Rotational constants (GHZ):           8.48630     7.97254     4.65678
 Zero-point vibrational energy     307652.6 (Joules/Mol)
                                   73.53073 (Kcal/Mol)
 Warning -- explicit consideration of   7 degrees of freedom as
           vibrations may cause significant error
 Vibrational temperatures:    189.25   334.07   375.76   519.14   538.00
          (Kelvin)            589.24   775.68  1184.73  1316.02  1371.61
                             1407.44  1431.76  1582.76  1717.68  1750.56
                             1916.70  1929.33  2024.70  2047.07  2131.53
                             2160.55  2166.37  2181.21  2193.11  4227.40
                             4378.58  4383.01  4478.79  4484.14  4485.23
                             4488.73  4547.09  4696.95

 Zero-point correction=                           0.117179 (Hartree/Particle)
 Thermal correction to Energy=                    0.123212
 Thermal correction to Enthalpy=                  0.124156
 Thermal correction to Gibbs Free Energy=         0.088573
 Sum of electronic and zero-point Energies=           -157.568353
 Sum of electronic and thermal Energies=              -157.562320
 Sum of electronic and thermal Enthalpies=            -157.561375
 Sum of electronic and thermal Free Energies=         -157.596958

                     E (Thermal)             CV                S
                      KCal/Mol        Cal/Mol-Kelvin    Cal/Mol-Kelvin
 Total                   77.317             20.934             74.891
 Electronic               0.000              0.000              1.377
 Translational            0.889              2.981             38.046
 Rotational               0.889              2.981             24.438
 Vibrational             75.539             14.973             11.030
 Vibration     1          0.612              1.922              2.923
 Vibration     2          0.653              1.792              1.862
 Vibration     3          0.669              1.744              1.654
 Vibration     4          0.735              1.553              1.119
 Vibration     5          0.745              1.526              1.064
 Vibration     6          0.774              1.450              0.928
 Vibration     7          0.894              1.164              0.567

                           ! Non-Optimized Parameters !
 Normal termination of Gaussian 16 at Sat Jun  1 02:52:22 2019.
