 Gaussian 16, Revision B.01,
 Gaussian 16:  ES64L-G16RevB.01 20-Dec-2017

 ----------------------------------------------------------------------
 # opt=(maxcyc=500,modredundant) uB2PLYPD3/cc-pvtz scf=maxcyc=500 nosym
 m
 ----------------------------------------------------------------------

 -------------------
 Title Card Required
 -------------------
 Symbolic Z-matrix:
 Charge =  0 Multiplicity = 1

 SCF Done:  E(UB2PLYPD3) =  -156.907134309     A.U. after   11 cycles
 E2(B2PLYPD3) =    -0.2240532995D+00 E(B2PLYPD3) =    -0.15713118760872D+03
 SCF Done:  E(UB2PLYPD3) =  -156.907288780     A.U. after    7 cycles
 E2(B2PLYPD3) =    -0.2239560652D+00 E(B2PLYPD3) =    -0.15713124484534D+03
 SCF Done:  E(UB2PLYPD3) =  -156.907285688     A.U. after    6 cycles
 E2(B2PLYPD3) =    -0.2239603742D+00 E(B2PLYPD3) =    -0.15713124606219D+03
 Optimization completed.
    -- Stationary point found.
 SCF Done:  E(UB2PLYPD3) =  -156.907034848     A.U. after    9 cycles
 E2(B2PLYPD3) =    -0.2239761839D+00 E(B2PLYPD3) =    -0.15713101103189D+03
 SCF Done:  E(UB2PLYPD3) =  -156.907048929     A.U. after    8 cycles
 E2(B2PLYPD3) =    -0.2239787265D+00 E(B2PLYPD3) =    -0.15713102765527D+03
 SCF Done:  E(UB2PLYPD3) =  -156.907077564     A.U. after    8 cycles
 E2(B2PLYPD3) =    -0.2239753874D+00 E(B2PLYPD3) =    -0.15713105295186D+03
 SCF Done:  E(UB2PLYPD3) =  -156.907078583     A.U. after    6 cycles
 E2(B2PLYPD3) =    -0.2239748605D+00 E(B2PLYPD3) =    -0.15713105344362D+03
 SCF Done:  E(UB2PLYPD3) =  -156.907078998     A.U. after    6 cycles
 E2(B2PLYPD3) =    -0.2239746977D+00 E(B2PLYPD3) =    -0.15713105369555D+03
 SCF Done:  E(UB2PLYPD3) =  -156.907078872     A.U. after    5 cycles
 E2(B2PLYPD3) =    -0.2239748478D+00 E(B2PLYPD3) =    -0.15713105371957D+03
 Optimization completed.
 SCF Done:  E(UB2PLYPD3) =  -156.906472686     A.U. after    9 cycles
 E2(B2PLYPD3) =    -0.2239997954D+00 E(B2PLYPD3) =    -0.15713047248160D+03
 E2(B2PLYPD3) =    -0.2240002936D+00 E(B2PLYPD3) =    -0.15713050242199D+03
 E2(B2PLYPD3) =    -0.2240003471D+00 E(B2PLYPD3) =    -0.15713050270870D+03
 E2(B2PLYPD3) =    -0.2240299797D+00 E(B2PLYPD3) =    -0.15712966864046D+03
 E2(B2PLYPD3) =    -0.2240310501D+00 E(B2PLYPD3) =    -0.15712968340970D+03
 E2(B2PLYPD3) =    -0.2240570873D+00 E(B2PLYPD3) =    -0.15712876373511D+03
 E2(B2PLYPD3) =    -0.2240560699D+00 E(B2PLYPD3) =    -0.15712877465310D+03
 E2(B2PLYPD3) =    -0.2240552108D+00 E(B2PLYPD3) =    -0.15712877504826D+03
 E2(B2PLYPD3) =    -0.2240724511D+00 E(B2PLYPD3) =    -0.15712801192091D+03
 E2(B2PLYPD3) =    -0.2240662713D+00 E(B2PLYPD3) =    -0.15712804140190D+03
 E2(B2PLYPD3) =    -0.2240659658D+00 E(B2PLYPD3) =    -0.15712804189674D+03
 E2(B2PLYPD3) =    -0.2240668514D+00 E(B2PLYPD3) =    -0.15712776096923D+03
 E2(B2PLYPD3) =    -0.2240682814D+00 E(B2PLYPD3) =    -0.15712776130903D+03
 E2(B2PLYPD3) =    -0.2240648124D+00 E(B2PLYPD3) =    -0.15712798269853D+03
 E2(B2PLYPD3) =    -0.2240638786D+00 E(B2PLYPD3) =    -0.15712804241804D+03
 E2(B2PLYPD3) =    -0.2240658110D+00 E(B2PLYPD3) =    -0.15712804283178D+03
 E2(B2PLYPD3) =    -0.2240505537D+00 E(B2PLYPD3) =    -0.15712874625545D+03
 E2(B2PLYPD3) =    -0.2240550628D+00 E(B2PLYPD3) =    -0.15712877703653D+03
 E2(B2PLYPD3) =    -0.2240550639D+00 E(B2PLYPD3) =    -0.15712877731047D+03
 E2(B2PLYPD3) =    -0.2240291588D+00 E(B2PLYPD3) =    -0.15712967529396D+03
 E2(B2PLYPD3) =    -0.2240309753D+00 E(B2PLYPD3) =    -0.15712968625307D+03
 SCF Done:  E(UB2PLYPD3) =  -156.905655434     A.U. after    5 cycles
 E2(B2PLYPD3) =    -0.2240308662D+00 E(B2PLYPD3) =    -0.15712968630029D+03
 SCF Done:  E(UB2PLYPD3) =  -156.906487572     A.U. after    9 cycles
 E2(B2PLYPD3) =    -0.2240019229D+00 E(B2PLYPD3) =    -0.15713048949468D+03
 SCF Done:  E(UB2PLYPD3) =  -156.906505546     A.U. after    8 cycles
 E2(B2PLYPD3) =    -0.2239988262D+00 E(B2PLYPD3) =    -0.15713050437188D+03
 SCF Done:  E(UB2PLYPD3) =  -156.906504482     A.U. after    6 cycles
 E2(B2PLYPD3) =    -0.2240002190D+00 E(B2PLYPD3) =    -0.15713050470147D+03
 SCF Done:  E(UB2PLYPD3) =  -156.907045967     A.U. after    9 cycles
 E2(B2PLYPD3) =    -0.2239778311D+00 E(B2PLYPD3) =    -0.15713102379770D+03
 SCF Done:  E(UB2PLYPD3) =  -156.907080679     A.U. after    8 cycles
 E2(B2PLYPD3) =    -0.2239738640D+00 E(B2PLYPD3) =    -0.15713105454321D+03
 SCF Done:  E(UB2PLYPD3) =  -156.907080140     A.U. after    6 cycles
 E2(B2PLYPD3) =    -0.2239746634D+00 E(B2PLYPD3) =    -0.15713105480335D+03
    -- Stationary point found.
 SCF Done:  E(UB2PLYPD3) =  -156.907235263     A.U. after    9 cycles
 E2(B2PLYPD3) =    -0.2239675241D+00 E(B2PLYPD3) =    -0.15713120278744D+03
 SCF Done:  E(UB2PLYPD3) =  -156.907281577     A.U. after    8 cycles
 E2(B2PLYPD3) =    -0.2239642706D+00 E(B2PLYPD3) =    -0.15713124584720D+03
 SCF Done:  E(UB2PLYPD3) =  -156.907281356     A.U. after    6 cycles
 E2(B2PLYPD3) =    -0.2239647027D+00 E(B2PLYPD3) =    -0.15713124605850D+03
 Optimization completed.
    -- Stationary point found.

                          Input orientation:
 ---------------------------------------------------------------------
 Center     Atomic      Atomic             Coordinates (Angstroms)
 Number     Number       Type             X           Y           Z
 ---------------------------------------------------------------------
      1          6           0       -0.244341    1.010016   -1.057679
      2          6           0       -0.034053    0.060233   -0.147444
      3          1           0       -1.175975    1.556754   -1.095940
      4          1           0        0.509550    1.266005   -1.788738
      5          6           0        1.252884   -0.709710   -0.078560
      6          6           0       -1.068728   -0.309441    0.875589
      7          1           0        1.069988   -1.779267   -0.200524
      8          1           0        1.954309   -0.391062   -0.846204
      9          1           0        1.727180   -0.582496    0.896695
     10          1           0       -0.680390   -0.167851    1.886227
     11          1           0       -1.972330    0.286174    0.767920
     12          1           0       -1.338093   -1.364020    0.788659
 ---------------------------------------------------------------------

 Alpha  occ. eigenvalues --  -10.62374 -10.60567 -10.60566 -10.59340  -0.92600
 Alpha  occ. eigenvalues --   -0.79846  -0.78383  -0.60584  -0.52427  -0.51522
 Alpha  occ. eigenvalues --   -0.50044  -0.45084  -0.43502  -0.42914  -0.39851
 Alpha  occ. eigenvalues --   -0.28998
 Alpha virt. eigenvalues --    0.07694   0.07783   0.12014   0.12467   0.14344
 Alpha virt. eigenvalues --    0.15284   0.16142   0.19116   0.20634   0.21038
 Alpha virt. eigenvalues --    0.27391   0.27616   0.30006   0.31713   0.33278

  Beta  occ. eigenvalues --  -10.62374 -10.60567 -10.60566 -10.59340  -0.92600
  Beta  occ. eigenvalues --   -0.79846  -0.78383  -0.60584  -0.52427  -0.51522
  Beta  occ. eigenvalues --   -0.50044  -0.45084  -0.43502  -0.42914  -0.39851
  Beta  occ. eigenvalues --   -0.28998
  Beta virt. eigenvalues --    0.07694   0.07783   0.12014   0.12467   0.14344
  Beta virt. eigenvalues --    0.15284   0.16142   0.19116   0.20634   0.21038
  Beta virt. eigenvalues --    0.27391   0.27616   0.30006   0.31713   0.33278

 Mulliken charges and spin densities:
               1          2
     1  C   -0.358619   0.000000
     2  C    0.105088  -0.000000
     3  H    0.116407  -0.000000
     4  H    0.116407  -0.000000
     5  C   -0.277706  -0.000000
     6  C   -0.277720   0.000000
     7  H    0.094543  -0.000000
     8  H    0.098974  -0.000000
     9  H    0.094549   0.000000
    10  H    0.094546   0.000000
    11  H    0.098970   0.000000
    12  H    0.094562  -0.000000
 Sum of Mulliken charges =  -0.00000  -0.00000

 Dipole moment (field-independent basis, Debye):
    X=              0.0877    Y=             -0.3968    Z=              0.3801  Tot=              0.5564
 Quadrupole moment (field-independent basis, Debye-Ang):
   XX=            -26.2839   YY=            -27.2926   ZZ=            -27.1614
   XY=             -0.5562   XZ=             -0.6325   YZ=             -0.7661

 Normal termination of Gaussian 16 at Sat Jun  1 16:07:36 2019.
