 Gaussian 16, Revision B.01,
 Gaussian 16:  ES64L-G16RevB.01 20-Dec-2017

 -----------------------------------------------
 # opt=maxcyc=500 freq=noraman uB2PLYPD3/cc-pvtz
 -----------------------------------------------

 -------------------
 Title Card Required
 -------------------
 Symbolic Z-matrix:
 Charge =  0 Multiplicity = 1

 SCF Done:  E(UB2PLYPD3) =  -156.907134309     A.U. after   11 cycles
 E2(B2PLYPD3) =    -0.2240532995D+00 E(B2PLYPD3) =    -0.15713118760871D+03
 SCF Done:  E(UB2PLYPD3) =  -156.907288776     A.U. after    7 cycles
 E2(B2PLYPD3) =    -0.2239560701D+00 E(B2PLYPD3) =    -0.15713124484619D+03
 SCF Done:  E(UB2PLYPD3) =  -156.907285683     A.U. after    6 cycles
 E2(B2PLYPD3) =    -0.2239603799D+00 E(B2PLYPD3) =    -0.15713124606250D+03
 Optimization completed.
    -- Stationary point found.
 Normal termination of Gaussian 16 at Sat Jun  1 03:25:38 2019.

 ----------------------------------------------------------------------
 #N Geom=AllCheck Guess=TCheck SCRF=Check GenChk UB2PLYPD3(FC)/CC-pVTZ
 Freq
 ----------------------------------------------------------------------

 Structure from the checkpoint file:  "/localscratch/339542/Gau-54000.chk"
 -------------------
 Title Card Required
 -------------------
 Charge =  0 Multiplicity = 1

                         Standard orientation:
 ---------------------------------------------------------------------
 Center     Atomic      Atomic             Coordinates (Angstroms)
 Number     Number       Type             X           Y           Z
 ---------------------------------------------------------------------
      1          6           0       -0.000000    0.000000    1.454960
      2          6           0       -0.000000    0.000000    0.122836
      3          1           0        0.000015    0.922584    2.018068
      4          1           0       -0.000015   -0.922584    2.018068
      5          6           0       -0.000000   -1.270729   -0.676826
      6          6           0        0.000000    1.270729   -0.676826
      7          1           0        0.875880   -1.317406   -1.326992
      8          1           0       -0.000104   -2.149668   -0.036352
      9          1           0       -0.875763   -1.317314   -1.327156
     10          1           0       -0.875880    1.317406   -1.326992
     11          1           0        0.000104    2.149668   -0.036352
     12          1           0        0.875763    1.317314   -1.327156
 ---------------------------------------------------------------------

 SCF Done:  E(UB2PLYPD3) =  -156.907285683     A.U. after    1 cycles
 E2(B2PLYPD3) =    -0.2239603818D+00 E(B2PLYPD3) =    -0.15713124606442D+03
 E2(B2PLYPD3) =    -0.2239603818D+00 E(B2PLYPD3) =    -0.15713124606442D+03

 The electronic state is 1-A.
 Alpha  occ. eigenvalues --  -10.62374 -10.60565 -10.60564 -10.59338  -0.92599
 Alpha  occ. eigenvalues --   -0.79844  -0.78388  -0.60584  -0.52423  -0.51525
 Alpha  occ. eigenvalues --   -0.50049  -0.45087  -0.43504  -0.42917  -0.39842
 Alpha  occ. eigenvalues --   -0.29001
 Alpha virt. eigenvalues --    0.07698   0.07783   0.12016   0.12467   0.14346
 Alpha virt. eigenvalues --    0.15283   0.16140   0.19122   0.20634   0.21036
 Alpha virt. eigenvalues --    0.27390   0.27614   0.30003   0.31710   0.33277

  Beta  occ. eigenvalues --  -10.62374 -10.60565 -10.60564 -10.59338  -0.92599
  Beta  occ. eigenvalues --   -0.79844  -0.78388  -0.60584  -0.52423  -0.51525
  Beta  occ. eigenvalues --   -0.50049  -0.45087  -0.43504  -0.42917  -0.39842
  Beta  occ. eigenvalues --   -0.29001
  Beta virt. eigenvalues --    0.07698   0.07783   0.12016   0.12467   0.14346
  Beta virt. eigenvalues --    0.15283   0.16140   0.19122   0.20634   0.21036
  Beta virt. eigenvalues --    0.27390   0.27614   0.30003   0.31710   0.33277

 Mulliken charges and spin densities:
               1          2
     1  C   -0.358649  -0.000000
     2  C    0.105004   0.000000
     3  H    0.116420  -0.000000
     4  H    0.116420  -0.000000
     5  C   -0.277730   0.000000
     6  C   -0.277730   0.000000
     7  H    0.094579   0.000000
     8  H    0.098981  -0.000000
     9  H    0.094574   0.000000
    10  H    0.094579   0.000000
    11  H    0.098981  -0.000000
    12  H    0.094574   0.000000
 Sum of Mulliken charges =  -0.00000   0.00000

 Dipole moment (field-independent basis, Debye):
    X=              0.0000    Y=              0.0000    Z=             -0.5564  Tot=              0.5564
 Quadrupole moment (field-independent basis, Debye-Ang):
   XX=            -28.3358   YY=            -25.9306   ZZ=            -26.4412
   XY=              0.0000   XZ=              0.0000   YZ=             -0.0000

  Exact polarizability:  36.040   0.000  49.733   0.000   0.000  60.616
 Approx polarizability:  44.180  -0.000  50.688  -0.000   0.000  68.608

                      1                      2                      3
                      A                      B                      A
 Frequencies --    170.1820               212.3447               379.0962
 Red. masses --      1.0242                 1.0780                 2.1528
 Frc consts  --      0.0175                 0.0286                 0.1823
 IR Inten    --      0.0000                 0.4136                 0.2560

                      4                      5                      6
                      B                      B                      A
 Frequencies --    437.1329               438.0183               712.1171
 Red. masses --      2.0640                 2.1563                 1.0093
 Frc consts  --      0.2324                 0.2438                 0.3016
 IR Inten    --      1.6093                 6.9576                 0.0000

                      7                      8                      9
                      A                      B                      B
 Frequencies --    823.1814               924.3802               970.1587
 Red. masses --      3.4210                 1.3270                 1.4152
 Frc consts  --      1.3658                 0.6681                 0.7848
 IR Inten    --      0.1746                43.8146                 0.0007

                     10                     11                     12
                      B                      A                      A
 Frequencies --    994.3337              1029.6365              1091.4729
 Red. masses --      1.4756                 1.2374                 1.4630
 Frc consts  --      0.8596                 0.7729                 1.0269
 IR Inten    --      0.3445                 0.0000                 2.9121

                     13                     14                     15
                      B                      B                      B
 Frequencies --   1114.1706              1309.5400              1419.9498
 Red. masses --      1.6836                 2.5392                 1.4047
 Frc consts  --      1.2314                 2.5656                 1.6687
 IR Inten    --      0.0055                 2.7074                 8.9125

                     16                     17                     18
                      A                      A                      A
 Frequencies --   1421.9359              1455.1482              1484.7796
 Red. masses --      1.1941                 1.2082                 1.0465
 Frc consts  --      1.4226                 1.5073                 1.3593
 IR Inten    --      0.2392                 0.6857                 0.0000

                     19                     20                     21
                      B                      B                      A
 Frequencies --   1497.3180              1502.4356              1514.5246
 Red. masses --      1.0433                 1.0424                 1.0690
 Frc consts  --      1.3781                 1.3864                 1.4447
 IR Inten    --      3.8828                15.6362                13.3662

                     22                     23                     24
                      A                      B                      A
 Frequencies --   1720.8686              3035.2673              3039.8229
 Red. masses --      4.8292                 1.0371                 1.0374
 Frc consts  --      8.4260                 5.6293                 5.6479
 IR Inten    --     17.5236                18.9443                35.5759

                     25                     26                     27
                      A                      B                      B
 Frequencies --   3086.0972              3088.5037              3132.9913
 Red. masses --      1.0993                 1.0989                 1.1002
 Frc consts  --      6.1687                 6.1759                 6.3625
 IR Inten    --      0.0000                41.8333                23.6556

                     28                     29                     30
                      A                      A                      B
 Frequencies --   3134.6256              3156.0517              3239.5902
 Red. masses --      1.0999                 1.0595                 1.1162
 Frc consts  --      6.3678                 6.2178                 6.9018
 IR Inten    --     19.7150                 8.8497                17.1905

 - Thermochemistry -
 -------------------
 Temperature   298.150 Kelvin.  Pressure   1.00000 Atm.
 Atom     1 has atomic number  6 and mass  12.00000

 Molecular mass:    56.06260 amu.
 Principal axes and moments of inertia in atomic units:
                           1         2         3
     Eigenvalues --   196.22977 213.80846 387.95289
           X            0.00000   0.00000   1.00000
           Y            1.00000   0.00000  -0.00000
           Z           -0.00000   1.00000   0.00000
 This molecule is an asymmetric top.
 Rotational symmetry number  2.
 Rotational temperatures (Kelvin)      0.44139     0.40510     0.22326
 Rotational constants (GHZ):           9.19708     8.44093     4.65196
 Zero-point vibrational energy     284326.5 (Joules/Mol)
                                   67.95566 (Kcal/Mol)
 Warning -- explicit consideration of   5 degrees of freedom as
           vibrations may cause significant error
 Vibrational temperatures:    244.85   305.52   545.43   628.94   630.21
          (Kelvin)           1024.58  1184.37  1329.98  1395.84  1430.62
                             1481.42  1570.39  1603.04  1884.14  2042.99
                             2045.85  2093.63  2136.27  2154.31  2161.67
                             2179.06  2475.95  4367.07  4373.63  4440.21
                             4443.67  4507.68  4510.03  4540.85  4661.05

 Zero-point correction=                           0.108294 (Hartree/Particle)
 Thermal correction to Energy=                    0.113599
 Thermal correction to Enthalpy=                  0.114543
 Thermal correction to Gibbs Free Energy=         0.081652
 Sum of electronic and zero-point Energies=           -157.022952
 Sum of electronic and thermal Energies=              -157.017647
 Sum of electronic and thermal Enthalpies=            -157.016703
 Sum of electronic and thermal Free Energies=         -157.049595

                     E (Thermal)             CV                S
                      KCal/Mol        Cal/Mol-Kelvin    Cal/Mol-Kelvin
 Total                   71.284             18.300             69.226
 Electronic               0.000              0.000              0.000
 Translational            0.889              2.981             37.993
 Rotational               0.889              2.981             22.924
 Vibrational             69.507             12.339              8.309
 Vibration     1          0.625              1.879              2.433
 Vibration     2          0.643              1.822              2.023
 Vibration     3          0.749              1.515              1.043
 Vibration     4          0.797              1.389              0.836
 Vibration     5          0.798              1.387              0.833

 Optimization completed.
    -- Stationary point found.
 Normal termination of Gaussian 16 at Sat Jun  1 03:38:58 2019.
