 Gaussian 16, Revision B.01,
 Gaussian 16:  ES64L-G16RevB.01 20-Dec-2017

 ----------------------------------------------------------------------
 # opt=(maxcyc=500,modredundant) uB2PLYPD3/cc-pvtz scf=maxcyc=500 nosym
 m
 ----------------------------------------------------------------------

 -------------------
 Title Card Required
 -------------------
 Symbolic Z-matrix:
 Charge =  0 Multiplicity = 1

 SCF Done:  E(UB2PLYPD3) =  -158.116003997     A.U. after   11 cycles
 E2(B2PLYPD3) =    -0.2352306360D+00 E(B2PLYPD3) =    -0.15835123463268D+03
 SCF Done:  E(UB2PLYPD3) =  -158.122038147     A.U. after   10 cycles
 E2(B2PLYPD3) =    -0.2339787398D+00 E(B2PLYPD3) =    -0.15835601688702D+03
 SCF Done:  E(UB2PLYPD3) =  -158.122098083     A.U. after    7 cycles
 E2(B2PLYPD3) =    -0.2339562385D+00 E(B2PLYPD3) =    -0.15835605432111D+03
 SCF Done:  E(UB2PLYPD3) =  -158.122088159     A.U. after    6 cycles
 E2(B2PLYPD3) =    -0.2339691505D+00 E(B2PLYPD3) =    -0.15835605730915D+03
 Optimization completed.
    -- Stationary point found.
 SCF Done:  E(UB2PLYPD3) =  -158.121683332     A.U. after    8 cycles
 E2(B2PLYPD3) =    -0.2339857555D+00 E(B2PLYPD3) =    -0.15835566908746D+03
 SCF Done:  E(UB2PLYPD3) =  -158.121747699     A.U. after    8 cycles
 E2(B2PLYPD3) =    -0.2339790245D+00 E(B2PLYPD3) =    -0.15835572672363D+03
 SCF Done:  E(UB2PLYPD3) =  -158.121754564     A.U. after    6 cycles
 E2(B2PLYPD3) =    -0.2339771930D+00 E(B2PLYPD3) =    -0.15835573175742D+03
 SCF Done:  E(UB2PLYPD3) =  -158.121754687     A.U. after    6 cycles
 E2(B2PLYPD3) =    -0.2339775561D+00 E(B2PLYPD3) =    -0.15835573224335D+03
 SCF Done:  E(UB2PLYPD3) =  -158.121754493     A.U. after    6 cycles
 E2(B2PLYPD3) =    -0.2339778760D+00 E(B2PLYPD3) =    -0.15835573236896D+03
 Optimization completed.
 SCF Done:  E(UB2PLYPD3) =  -158.120786805     A.U. after    8 cycles
 E2(B2PLYPD3) =    -0.2340088482D+00 E(B2PLYPD3) =    -0.15835479565308D+03
 E2(B2PLYPD3) =    -0.2340019548D+00 E(B2PLYPD3) =    -0.15835484354991D+03
 E2(B2PLYPD3) =    -0.2340030107D+00 E(B2PLYPD3) =    -0.15835484399666D+03
 E2(B2PLYPD3) =    -0.2340382031D+00 E(B2PLYPD3) =    -0.15835353131971D+03
 E2(B2PLYPD3) =    -0.2340326022D+00 E(B2PLYPD3) =    -0.15835356016194D+03
 E2(B2PLYPD3) =    -0.2340623497D+00 E(B2PLYPD3) =    -0.15835215194173D+03
 E2(B2PLYPD3) =    -0.2340545929D+00 E(B2PLYPD3) =    -0.15835217294100D+03
 E2(B2PLYPD3) =    -0.2340546478D+00 E(B2PLYPD3) =    -0.15835217304902D+03
 E2(B2PLYPD3) =    -0.2340726256D+00 E(B2PLYPD3) =    -0.15835103369707D+03
 E2(B2PLYPD3) =    -0.2340608059D+00 E(B2PLYPD3) =    -0.15835107197710D+03
 E2(B2PLYPD3) =    -0.2340611380D+00 E(B2PLYPD3) =    -0.15835107267513D+03
 E2(B2PLYPD3) =    -0.2340584292D+00 E(B2PLYPD3) =    -0.15835107297502D+03
 E2(B2PLYPD3) =    -0.2340645064D+00 E(B2PLYPD3) =    -0.15835056380423D+03
 E2(B2PLYPD3) =    -0.2340578611D+00 E(B2PLYPD3) =    -0.15835064437754D+03
 E2(B2PLYPD3) =    -0.2340606802D+00 E(B2PLYPD3) =    -0.15835064494635D+03
 E2(B2PLYPD3) =    -0.2340577290D+00 E(B2PLYPD3) =    -0.15835100206280D+03
 E2(B2PLYPD3) =    -0.2340664549D+00 E(B2PLYPD3) =    -0.15835108372182D+03
 E2(B2PLYPD3) =    -0.2340673018D+00 E(B2PLYPD3) =    -0.15835108461603D+03
 E2(B2PLYPD3) =    -0.2340527773D+00 E(B2PLYPD3) =    -0.15835216410843D+03
 E2(B2PLYPD3) =    -0.2340673231D+00 E(B2PLYPD3) =    -0.15835221109275D+03
 E2(B2PLYPD3) =    -0.2340677587D+00 E(B2PLYPD3) =    -0.15835221130248D+03
 SCF Done:  E(UB2PLYPD3) =  -158.119553920     A.U. after    8 cycles
 E2(B2PLYPD3) =    -0.2340415498D+00 E(B2PLYPD3) =    -0.15835359546980D+03
 SCF Done:  E(UB2PLYPD3) =  -158.119566113     A.U. after    8 cycles
 E2(B2PLYPD3) =    -0.2340512937D+00 E(B2PLYPD3) =    -0.15835361740673D+03
 SCF Done:  E(UB2PLYPD3) =  -158.120850593     A.U. after    9 cycles
 E2(B2PLYPD3) =    -0.2340193640D+00 E(B2PLYPD3) =    -0.15835486995736D+03
 SCF Done:  E(UB2PLYPD3) =  -158.120877596     A.U. after    8 cycles
 E2(B2PLYPD3) =    -0.2340198272D+00 E(B2PLYPD3) =    -0.15835489742274D+03
 SCF Done:  E(UB2PLYPD3) =  -158.120877237     A.U. after    6 cycles
 E2(B2PLYPD3) =    -0.2340206292D+00 E(B2PLYPD3) =    -0.15835489786669D+03
 SCF Done:  E(UB2PLYPD3) =  -158.121721325     A.U. after    8 cycles
 E2(B2PLYPD3) =    -0.2339939198D+00 E(B2PLYPD3) =    -0.15835571524523D+03
 SCF Done:  E(UB2PLYPD3) =  -158.121776136     A.U. after    8 cycles
 E2(B2PLYPD3) =    -0.2339878789D+00 E(B2PLYPD3) =    -0.15835576401474D+03
    -- Stationary point found.
 SCF Done:  E(UB2PLYPD3) =  -158.122014206     A.U. after    9 cycles
 E2(B2PLYPD3) =    -0.2339796962D+00 E(B2PLYPD3) =    -0.15835599390221D+03
 SCF Done:  E(UB2PLYPD3) =  -158.122088528     A.U. after    8 cycles
 E2(B2PLYPD3) =    -0.2339694712D+00 E(B2PLYPD3) =    -0.15835605799911D+03
 SCF Done:  E(UB2PLYPD3) =  -158.122087235     A.U. after    6 cycles
 E2(B2PLYPD3) =    -0.2339709879D+00 E(B2PLYPD3) =    -0.15835605822341D+03
 Optimization completed.
    -- Stationary point found.

                          Input orientation:
 ---------------------------------------------------------------------
 Center     Atomic      Atomic             Coordinates (Angstroms)
 Number     Number       Type             X           Y           Z
 ---------------------------------------------------------------------
      1          6           0       -3.405727    0.755108    0.120070
      2          6           0       -1.882230    0.816401    0.203148
      3          1           0       -1.563552    1.802433   -0.146234
      4          1           0       -3.868022    1.522816    0.740447
      5          1           0       -3.752961    0.895190   -0.903557
      6          1           0       -3.768356   -0.215116    0.464935
      7          6           0       -1.245102   -0.235176   -0.702381
      8          6           0       -1.409142    0.650780    1.645604
      9          1           0       -0.157018   -0.181140   -0.668517
     10          1           0       -1.538647   -1.238443   -0.387640
     11          1           0       -1.556697   -0.107403   -1.738993
     12          1           0       -1.707123   -0.324374    2.035524
     13          1           0       -0.323787    0.720159    1.717550
     14          1           0       -1.839261    1.413826    2.294255
 ---------------------------------------------------------------------

 Alpha  occ. eigenvalues --  -10.61241 -10.59527 -10.59526 -10.59525  -0.91961
 Alpha  occ. eigenvalues --   -0.78450  -0.78449  -0.64638  -0.53472  -0.49823
 Alpha  occ. eigenvalues --   -0.49820  -0.44632  -0.44627  -0.42473  -0.38431
 Alpha  occ. eigenvalues --   -0.38429  -0.37956
 Alpha virt. eigenvalues --    0.07613   0.11783   0.12179   0.12181   0.15015
 Alpha virt. eigenvalues --    0.15019   0.15054   0.19598   0.19609   0.21060
 Alpha virt. eigenvalues --    0.21179   0.24733   0.24743   0.30082   0.30084

  Beta  occ. eigenvalues --  -10.61241 -10.59527 -10.59526 -10.59525  -0.91961
  Beta  occ. eigenvalues --   -0.78450  -0.78449  -0.64638  -0.53472  -0.49823
  Beta  occ. eigenvalues --   -0.49820  -0.44632  -0.44627  -0.42473  -0.38431
  Beta  occ. eigenvalues --   -0.38429  -0.37956
  Beta virt. eigenvalues --    0.07613   0.11783   0.12179   0.12181   0.15015
  Beta virt. eigenvalues --    0.15019   0.15054   0.19598   0.19609   0.21060
  Beta virt. eigenvalues --    0.21179   0.24733   0.24743   0.30082   0.30084

 Mulliken charges and spin densities:
               1          2
     1  C   -0.299866  -0.000000
     2  C   -0.032575   0.000000
     3  H    0.092063  -0.000000
     4  H    0.096135   0.000000
     5  H    0.096022   0.000000
     6  H    0.087884   0.000000
     7  C   -0.299868   0.000000
     8  C   -0.299874  -0.000000
     9  H    0.096075  -0.000000
    10  H    0.087879   0.000000
    11  H    0.096090  -0.000000
    12  H    0.087872  -0.000000
    13  H    0.096084   0.000000
    14  H    0.096079  -0.000000
 Sum of Mulliken charges =  -0.00000   0.00000

 Dipole moment (field-independent basis, Debye):
    X=              0.0369    Y=              0.1145    Z=             -0.0406  Tot=              0.1270
 Quadrupole moment (field-independent basis, Debye-Ang):
   XX=            -29.1916   YY=            -28.4382   ZZ=            -29.0599
   XY=             -0.0315   XZ=              0.0292   YZ=             -0.1783

 Normal termination of Gaussian 16 at Sat Jun  1 13:33:32 2019.
