 Gaussian 16, Revision B.01,
 Gaussian 16:  ES64L-G16RevB.01 20-Dec-2017

 -----------------------------------------------
 # opt=maxcyc=500 freq=noraman uB2PLYPD3/cc-pvtz
 -----------------------------------------------

 -------------------
 Title Card Required
 -------------------
 Symbolic Z-matrix:
 Charge =  0 Multiplicity = 2

 SCF Done:  E(UB2PLYPD3) =  -156.268143716     A.U. after   16 cycles
 E2(B2PLYPD3) =    -0.2107912350D+00 E(B2PLYPD3) =    -0.15647893495118D+03
 SCF Done:  E(UB2PLYPD3) =  -156.271029517     A.U. after   12 cycles
 E2(B2PLYPD3) =    -0.2102719402D+00 E(B2PLYPD3) =    -0.15648130145676D+03
 SCF Done:  E(UB2PLYPD3) =  -156.271029474     A.U. after    9 cycles
 E2(B2PLYPD3) =    -0.2102761243D+00 E(B2PLYPD3) =    -0.15648130559875D+03
 Optimization completed.
    -- Stationary point found.
 Normal termination of Gaussian 16 at Sun Jun  2 18:33:31 2019.

 ----------------------------------------------------------------------
 #N Geom=AllCheck Guess=TCheck SCRF=Check GenChk UB2PLYPD3(FC)/CC-pVTZ
 Freq
 ----------------------------------------------------------------------

 Structure from the checkpoint file:  "/localscratch/339781/Gau-64146.chk"
 -------------------
 Title Card Required
 -------------------
 Charge =  0 Multiplicity = 2

                         Standard orientation:
 ---------------------------------------------------------------------
 Center     Atomic      Atomic             Coordinates (Angstroms)
 Number     Number       Type             X           Y           Z
 ---------------------------------------------------------------------
      1          6           0       -0.783916   -1.195802   -0.000613
      2          6           0       -0.090743   -0.003256   -0.005665
      3          1           0       -1.863664   -1.207891    0.015708
      4          6           0       -0.753559    1.213939   -0.000610
      5          6           0        1.419992   -0.015844    0.001456
      6          1           0       -0.213665    2.148342   -0.014574
      7          1           0       -1.832227    1.256178    0.017001
      8          1           0        1.799432    0.190448    1.002377
      9          1           0        1.809452   -0.982135   -0.310305
     10          1           0        1.821443    0.746164   -0.664148
     11          1           0       -0.271415   -2.145326   -0.013469
 ---------------------------------------------------------------------

 SCF Done:  E(UB2PLYPD3) =  -156.271029474     A.U. after    1 cycles
 E2(B2PLYPD3) =    -0.2102761229D+00 E(B2PLYPD3) =    -0.15648130559735D+03
 E2(B2PLYPD3) =    -0.2102761229D+00 E(B2PLYPD3) =    -0.15648130559735D+03

 The electronic state is 2-A.
 Alpha  occ. eigenvalues --  -10.62252 -10.61368 -10.61297 -10.60676  -0.93374
 Alpha  occ. eigenvalues --   -0.79790  -0.78872  -0.61140  -0.53524  -0.52752
 Alpha  occ. eigenvalues --   -0.48263  -0.44668  -0.43810  -0.41418  -0.36271
 Alpha  occ. eigenvalues --   -0.25013
 Alpha virt. eigenvalues --    0.08441   0.09476   0.11854   0.12724   0.14341
 Alpha virt. eigenvalues --    0.15663   0.17627   0.19834   0.21145   0.27174
 Alpha virt. eigenvalues --    0.29159   0.31654   0.36380   0.36635   0.37707

  Beta  occ. eigenvalues --  -10.62888 -10.60629 -10.60154 -10.60140  -0.92669
  Beta  occ. eigenvalues --   -0.78885  -0.75015  -0.60532  -0.53012  -0.52231
  Beta  occ. eigenvalues --   -0.48427  -0.44091  -0.43505  -0.41263  -0.31449
  Beta virt. eigenvalues --   -0.00751   0.08629   0.11106   0.12092   0.12969
  Beta virt. eigenvalues --    0.14613   0.15997   0.18034   0.20024   0.21011
  Beta virt. eigenvalues --    0.27196   0.29399   0.32086   0.37090   0.38393

 Mulliken charges and spin densities:
               1          2
     1  C   -0.315740   0.725951
     2  C    0.136255  -0.360886
     3  H    0.117371  -0.028757
     4  C   -0.312916   0.760347
     5  C   -0.288270   0.023651
     6  H    0.121804  -0.035460
     7  H    0.118358  -0.030385
     8  H    0.106492  -0.012159
     9  H    0.096060  -0.002536
    10  H    0.099567  -0.005668
    11  H    0.121019  -0.034097
 Sum of Mulliken charges =  -0.00000   1.00000

 Dipole moment (field-independent basis, Debye):
    X=              0.2871    Y=              0.0228    Z=              0.0309  Tot=              0.2896
 Quadrupole moment (field-independent basis, Debye-Ang):
   XX=            -24.7775   YY=            -24.9191   ZZ=            -28.5275
   XY=              0.0142   XZ=             -0.0459   YZ=              0.0019

  Exact polarizability:  50.505   0.589  63.470  -0.023  -0.001  31.778
 Approx polarizability:  51.271   0.765  66.045   0.002  -0.002  39.015

                      1                      2                      3
                      A                      A                      A
 Frequencies --      8.2143               408.2247               434.6667
 Red. masses --      1.0535                 2.1646                 2.0408
 Frc consts  --      0.0000                 0.2125                 0.2272
 IR Inten    --      0.2280                 0.2083                 1.4987

                      4                      5                      6
                      A                      A                      A
 Frequencies --    485.5660               546.9551               573.3895
 Red. masses --      2.3306                 1.0202                 1.0225
 Frc consts  --      0.3238                 0.1798                 0.1981
 IR Inten    --     14.5136                 0.9199                 0.6431

                      7                      8                      9
                      A                      A                      A
 Frequencies --    782.6318               816.7985               861.2923
 Red. masses --      1.3219                 1.4474                 3.2199
 Frc consts  --      0.4770                 0.5690                 1.4073
 IR Inten    --      7.2577                63.9784                 0.5191

                     10                     11                     12
                      A                      A                      A
 Frequencies --    980.1635              1022.6767              1059.9617
 Red. masses --      1.2195                 1.6652                 1.6539
 Frc consts  --      0.6903                 1.0261                 1.0948
 IR Inten    --      0.5333                 0.5854                 0.4042

                     13                     14                     15
                      A                      A                      A
 Frequencies --   1069.3730              1323.5069              1389.8782
 Red. masses --      1.4955                 2.8794                 1.6155
 Frc consts  --      1.0076                 2.9717                 1.8387
 IR Inten    --      1.0181                 3.4315                 0.2276

                     16                     17                     18
                      A                      A                      A
 Frequencies --   1430.0531              1496.2913              1505.0283
 Red. masses --      1.5323                 1.1664                 1.0778
 Frc consts  --      1.8463                 1.5386                 1.4384
 IR Inten    --      4.6009                10.2332                 5.1751

                     19                     20                     21
                      A                      A                      A
 Frequencies --   1511.4116              1550.6935              3056.9603
 Red. masses --      1.1042                 1.6067                 1.0368
 Frc consts  --      1.4861                 2.2763                 5.7085
 IR Inten    --      3.5941                 8.4508                19.8120

                     22                     23                     24
                      A                      A                      A
 Frequencies --   3117.9109              3139.4142              3163.1242
 Red. masses --      1.0992                 1.1019                 1.0508
 Frc consts  --      6.2960                 6.3985                 6.1943
 IR Inten    --     15.5470                13.6660                12.9219

                     25                     26                     27
                      A                      A                      A
 Frequencies --   3170.7795              3262.4681              3264.7960
 Red. masses --      1.0558                 1.1177                 1.1176
 Frc consts  --      6.2539                 7.0095                 7.0183
 IR Inten    --      4.5339                 4.8968                14.5011

 - Thermochemistry -
 -------------------
 Temperature   298.150 Kelvin.  Pressure   1.00000 Atm.
 Atom     1 has atomic number  6 and mass  12.00000

 Molecular mass:    55.05478 amu.
 Principal axes and moments of inertia in atomic units:
                           1         2         3
     Eigenvalues --   179.70405 203.27250 371.86670
           X            1.00000  -0.00037  -0.00038
           Y            0.00037   1.00000   0.00000
           Z            0.00038  -0.00000   1.00000
 This molecule is an asymmetric top.
 Rotational symmetry number  1.
 Rotational temperatures (Kelvin)      0.48198     0.42610     0.23292
 Rotational constants (GHZ):          10.04285     8.87843     4.85319
 Zero-point vibrational energy     247819.8 (Joules/Mol)
                                   59.23035 (Kcal/Mol)
 Warning -- explicit consideration of   6 degrees of freedom as
           vibrations may cause significant error
 Vibrational temperatures:     11.82   587.34   625.39   698.62   786.95
          (Kelvin)            824.98  1126.03  1175.19  1239.21  1410.24
                             1471.40  1525.05  1538.59  1904.23  1999.72
                             2057.53  2152.83  2165.40  2174.58  2231.10
                             4398.28  4485.98  4516.92  4551.03  4562.04
                             4693.96  4697.31

 Zero-point correction=                           0.094390 (Hartree/Particle)
 Thermal correction to Energy=                    0.099722
 Thermal correction to Enthalpy=                  0.100666
 Thermal correction to Gibbs Free Energy=         0.064378
 Sum of electronic and zero-point Energies=           -156.386916
 Sum of electronic and thermal Energies=              -156.381584
 Sum of electronic and thermal Enthalpies=            -156.380640
 Sum of electronic and thermal Free Energies=         -156.416927

                     E (Thermal)             CV                S
                      KCal/Mol        Cal/Mol-Kelvin    Cal/Mol-Kelvin
 Total                   62.576             18.174             76.373
 Electronic               0.000              0.000              1.377
 Translational            0.889              2.981             37.939
 Rotational               0.889              2.981             24.122
 Vibrational             60.799             12.212             12.935
 Vibration     1          0.593              1.987              8.402
 Vibration     2          0.773              1.452              0.933
 Vibration     3          0.795              1.395              0.844
 Vibration     4          0.842              1.282              0.695
 Vibration     5          0.902              1.146              0.551
 Vibration     6          0.930              1.089              0.498

                           ! Non-Optimized Parameters !
 Normal termination of Gaussian 16 at Sun Jun  2 18:46:07 2019.
