 Gaussian 16, Revision B.01,
 Gaussian 16:  ES64L-G16RevB.01 20-Dec-2017

 -----------------------------------------------
 # opt=maxcyc=500 freq=noraman uB2PLYPD3/cc-pvtz
 -----------------------------------------------

 -------------------
 Title Card Required
 -------------------
 Symbolic Z-matrix:
 Charge =  0 Multiplicity = 1

 SCF Done:  E(UB2PLYPD3) =  -158.116004423     A.U. after   11 cycles
 E2(B2PLYPD3) =    -0.2352306329D+00 E(B2PLYPD3) =    -0.15835123505542D+03
 SCF Done:  E(UB2PLYPD3) =  -158.122044346     A.U. after   10 cycles
 E2(B2PLYPD3) =    -0.2339816892D+00 E(B2PLYPD3) =    -0.15835602603518D+03
 SCF Done:  E(UB2PLYPD3) =  -158.122098178     A.U. after    7 cycles
 E2(B2PLYPD3) =    -0.2339578895D+00 E(B2PLYPD3) =    -0.15835605606781D+03
 Optimization completed.
    -- Stationary point found.
 Normal termination of Gaussian 16 at Sat Jun  1 01:35:22 2019.

 ----------------------------------------------------------------------
 #N Geom=AllCheck Guess=TCheck SCRF=Check GenChk UB2PLYPD3(FC)/CC-pVTZ
 Freq
 ----------------------------------------------------------------------

 Structure from the checkpoint file:  "/localscratch/339542/Gau-8415.chk"
 -------------------
 Title Card Required
 -------------------
 Charge =  0 Multiplicity = 1

                         Standard orientation:
 ---------------------------------------------------------------------
 Center     Atomic      Atomic             Coordinates (Angstroms)
 Number     Number       Type             X           Y           Z
 ---------------------------------------------------------------------
      1          6           0       -0.576526   -1.331712    0.096057
      2          6           0        0.000005    0.000010   -0.376967
      3          1           0       -0.000013    0.000004   -1.470500
      4          1           0       -1.597206   -1.470618   -0.259289
      5          1           0        0.020425   -2.171040   -0.259645
      6          1           0       -0.595338   -1.375724    1.186669
      7          6           0        1.441563    0.166571    0.096059
      8          6           0       -0.865041    1.165142    0.096063
      9          1           0        1.869980    1.103212   -0.259625
     10          1           0        1.489072    0.172253    1.186674
     11          1           0        2.072202   -0.647904   -0.259299
     12          1           0       -0.893727    1.203430    1.186672
     13          1           0       -0.475004    2.118520   -0.259301
     14          1           0       -1.890396    1.067806   -0.259630
 ---------------------------------------------------------------------

 SCF Done:  E(UB2PLYPD3) =  -158.122098178     A.U. after    1 cycles
 E2(B2PLYPD3) =    -0.2339578919D+00 E(B2PLYPD3) =    -0.15835605607022D+03
 E2(B2PLYPD3) =    -0.2339578919D+00 E(B2PLYPD3) =    -0.15835605607022D+03

 The electronic state is 1-A.
 Alpha  occ. eigenvalues --  -10.61227 -10.59511 -10.59511 -10.59509  -0.91988
 Alpha  occ. eigenvalues --   -0.78460  -0.78460  -0.64649  -0.53482  -0.49836
 Alpha  occ. eigenvalues --   -0.49836  -0.44628  -0.44628  -0.42467  -0.38433
 Alpha  occ. eigenvalues --   -0.38433  -0.37970
 Alpha virt. eigenvalues --    0.07617   0.11778   0.12181   0.12181   0.15022
 Alpha virt. eigenvalues --    0.15022   0.15063   0.19602   0.19602   0.21070
 Alpha virt. eigenvalues --    0.21186   0.24740   0.24740   0.30095   0.30095

  Beta  occ. eigenvalues --  -10.61227 -10.59511 -10.59511 -10.59509  -0.91988
  Beta  occ. eigenvalues --   -0.78460  -0.78460  -0.64649  -0.53482  -0.49836
  Beta  occ. eigenvalues --   -0.49836  -0.44628  -0.44628  -0.42467  -0.38433
  Beta  occ. eigenvalues --   -0.38433  -0.37970
  Beta virt. eigenvalues --    0.07617   0.11778   0.12181   0.12181   0.15022
  Beta virt. eigenvalues --    0.15022   0.15063   0.19602   0.19602   0.21070
  Beta virt. eigenvalues --    0.21186   0.24740   0.24740   0.30095   0.30095

 Mulliken charges and spin densities:
               1          2
     1  C   -0.300112  -0.000000
     2  C   -0.032122   0.000000
     3  H    0.092101   0.000000
     4  H    0.096107   0.000000
     5  H    0.096116   0.000000
     6  H    0.087892  -0.000000
     7  C   -0.300107  -0.000000
     8  C   -0.300107   0.000000
     9  H    0.096116  -0.000000
    10  H    0.087889   0.000000
    11  H    0.096111  -0.000000
    12  H    0.087892  -0.000000
    13  H    0.096109  -0.000000
    14  H    0.096115   0.000000
 Sum of Mulliken charges =  -0.00000  -0.00000

 Dipole moment (field-independent basis, Debye):
    X=              0.0000    Y=              0.0000    Z=             -0.1269  Tot=              0.1269
 Quadrupole moment (field-independent basis, Debye-Ang):
   XX=            -29.1011   YY=            -29.1012   ZZ=            -28.4144
   XY=              0.0000   XZ=              0.0000   YZ=             -0.0000

  Exact polarizability:  52.601  -0.000  52.601  -0.000  -0.000  46.280
 Approx polarizability:  54.644   0.000  54.643  -0.000  -0.000  54.883

                      1                      2                      3
                      A                      A                      A
 Frequencies --    207.8385               258.3853               258.9781
 Red. masses --      1.0127                 1.0579                 1.0580
 Frc consts  --      0.0258                 0.0416                 0.0418
 IR Inten    --      0.0000                 0.0135                 0.0134

                      4                      5                      6
                      A                      A                      A
 Frequencies --    364.5464               364.6570               432.4109
 Red. masses --      2.0653                 2.0646                 1.9125
 Frc consts  --      0.1617                 0.1618                 0.2107
 IR Inten    --      0.0184                 0.0184                 0.1346

                      7                      8                      9
                      A                      A                      A
 Frequencies --    809.7602               931.0917               931.3048
 Red. masses --      2.7957                 1.1992                 1.1986
 Frc consts  --      1.0801                 0.6125                 0.6125
 IR Inten    --      0.5164                 0.8269                 0.8269

                     10                     11                     12
                      A                      A                      A
 Frequencies --    962.9854               985.9687               986.0737
 Red. masses --      1.2020                 1.7930                 1.7918
 Frc consts  --      0.6568                 1.0270                 1.0265
 IR Inten    --      0.0000                 0.0144                 0.0140

                     13                     14                     15
                      A                      A                      A
 Frequencies --   1204.5550              1204.5836              1221.1171
 Red. masses --      1.7386                 1.7391                 1.9341
 Frc consts  --      1.4863                 1.4868                 1.6992
 IR Inten    --      2.1607                 2.1621                 0.0823

                     16                     17                     18
                      A                      A                      A
 Frequencies --   1370.5919              1370.6453              1410.6759
 Red. masses --      1.4005                 1.4005                 1.2689
 Frc consts  --      1.5500                 1.5502                 1.4877
 IR Inten    --      2.6854                 2.6850                 7.0755

                     19                     20                     21
                      A                      A                      A
 Frequencies --   1410.7117              1437.7998              1495.7276
 Red. masses --      1.2689                 1.2343                 1.0483
 Frc consts  --      1.4878                 1.5034                 1.3817
 IR Inten    --      7.0724                 3.7298                 0.0000

                     22                     23                     24
                      A                      A                      A
 Frequencies --   1502.1466              1502.2322              1520.4598
 Red. masses --      1.0401                 1.0402                 1.0603
 Frc consts  --      1.3828                 1.3830                 1.4442
 IR Inten    --      0.3766                 0.3723                 3.7735

                     25                     26                     27
                      A                      A                      A
 Frequencies --   1520.4813              1527.8604              3027.5829
 Red. masses --      1.0603                 1.0449                 1.0825
 Frc consts  --      1.4443                 1.4372                 5.8461
 IR Inten    --      3.7707                17.0515                10.1249

                     28                     29                     30
                      A                      A                      A
 Frequencies --   3038.0221              3038.0302              3044.1777
 Red. masses --      1.0356                 1.0356                 1.0372
 Frc consts  --      5.6313                 5.6313                 5.6628
 IR Inten    --     32.4239                32.4374                17.4982

                     31                     32                     33
                      A                      A                      A
 Frequencies --   3102.6822              3102.6938              3112.1427
 Red. masses --      1.1003                 1.1004                 1.0993
 Frc consts  --      6.2410                 6.2411                 6.2734
 IR Inten    --      8.4610                 8.4577                94.0571

                     34                     35                     36
                      A                      A                      A
 Frequencies --   3113.8721              3117.6627              3117.6707
 Red. masses --      1.1027                 1.1014                 1.1014
 Frc consts  --      6.2996                 6.3074                 6.3075
 IR Inten    --      0.0061                54.3013                54.3169

 - Thermochemistry -
 -------------------
 Temperature   298.150 Kelvin.  Pressure   1.00000 Atm.
 Atom     1 has atomic number  6 and mass  12.00000

 Molecular mass:    58.07825 amu.
 Principal axes and moments of inertia in atomic units:
                           1         2         3
     Eigenvalues --   230.08595 230.08777 396.77558
           X            0.99789   0.06493   0.00000
           Y           -0.06493   0.99789  -0.00000
           Z           -0.00000   0.00000   1.00000
 This molecule is an asymmetric top.
 Rotational symmetry number  1.
 Rotational temperatures (Kelvin)      0.37644     0.37644     0.21829
 Rotational constants (GHZ):           7.84377     7.84371     4.54852
 Zero-point vibrational energy     346965.6 (Joules/Mol)
                                   82.92678 (Kcal/Mol)
 Warning -- explicit consideration of   6 degrees of freedom as
           vibrations may cause significant error
 Vibrational temperatures:    299.03   371.76   372.61   524.50   524.66
          (Kelvin)            622.14  1165.06  1339.63  1339.94  1385.52
                             1418.59  1418.74  1733.09  1733.13  1756.92
                             1971.98  1972.05  2029.65  2029.70  2068.67
                             2152.02  2161.25  2161.38  2187.60  2187.63
                             2198.25  4356.02  4371.04  4371.05  4379.89
                             4464.07  4464.08  4477.68  4480.17  4485.62
                             4485.63

 Zero-point correction=                           0.132152 (Hartree/Particle)
 Thermal correction to Energy=                    0.137858
 Thermal correction to Enthalpy=                  0.138802
 Thermal correction to Gibbs Free Energy=         0.104525
 Sum of electronic and zero-point Energies=           -158.223904
 Sum of electronic and thermal Energies=              -158.218198
 Sum of electronic and thermal Enthalpies=            -158.217254
 Sum of electronic and thermal Free Energies=         -158.251531

                     E (Thermal)             CV                S
                      KCal/Mol        Cal/Mol-Kelvin    Cal/Mol-Kelvin
 Total                   86.507             20.094             72.143
 Electronic               0.000              0.000              0.000
 Translational            0.889              2.981             38.098
 Rotational               0.889              2.981             24.555
 Vibrational             84.730             14.132              9.489
 Vibration     1          0.641              1.829              2.063
 Vibration     2          0.667              1.749              1.673
 Vibration     3          0.668              1.748              1.669
 Vibration     4          0.738              1.545              1.103
 Vibration     5          0.738              1.545              1.102
 Vibration     6          0.793              1.400              0.851

 Optimization completed.
    -- Stationary point found.
 Normal termination of Gaussian 16 at Sat Jun  1 02:00:09 2019.
