 Gaussian 16, Revision B.01,
 Gaussian 16:  ES64L-G16RevB.01 20-Dec-2017

 -----------------------------------------------
 # opt=maxcyc=500 freq=noraman uB2PLYPD3/cc-pvtz
 -----------------------------------------------

 -------------------
 Title Card Required
 -------------------
 Symbolic Z-matrix:
 Charge =  0 Multiplicity = 2

 SCF Done:  E(UB2PLYPD3) =  -156.228146153     A.U. after   18 cycles
 E2(B2PLYPD3) =    -0.2118864760D+00 E(B2PLYPD3) =    -0.15644003262914D+03
 SCF Done:  E(UB2PLYPD3) =  -156.232322893     A.U. after   14 cycles
 E2(B2PLYPD3) =    -0.2116766669D+00 E(B2PLYPD3) =    -0.15644399956002D+03
 SCF Done:  E(UB2PLYPD3) =  -156.232770084     A.U. after   13 cycles
 E2(B2PLYPD3) =    -0.2116204455D+00 E(B2PLYPD3) =    -0.15644439052980D+03
 SCF Done:  E(UB2PLYPD3) =  -156.232758694     A.U. after   12 cycles
 E2(B2PLYPD3) =    -0.2116417939D+00 E(B2PLYPD3) =    -0.15644440048782D+03
 SCF Done:  E(UB2PLYPD3) =  -156.232760881     A.U. after   11 cycles
 E2(B2PLYPD3) =    -0.2116410558D+00 E(B2PLYPD3) =    -0.15644440193653D+03
 Optimization completed.
    -- Stationary point found.
 Normal termination of Gaussian 16 at Sat Jun  1 03:45:26 2019.

 ----------------------------------------------------------------------
 #N Geom=AllCheck Guess=TCheck SCRF=Check GenChk UB2PLYPD3(FC)/CC-pVTZ
 Freq
 ----------------------------------------------------------------------

 Structure from the checkpoint file:  "/localscratch/339542/Gau-67268.chk"
 -------------------
 Title Card Required
 -------------------
 Charge =  0 Multiplicity = 2

                         Standard orientation:
 ---------------------------------------------------------------------
 Center     Atomic      Atomic             Coordinates (Angstroms)
 Number     Number       Type             X           Y           Z
 ---------------------------------------------------------------------
      1          6           0       -0.340584    1.458951   -0.000004
      2          6           0       -0.017532    0.189302    0.000002
      3          1           0       -1.246200    2.041749   -0.000092
      4          6           0       -1.069424   -0.899448   -0.000130
      5          6           0        1.411868   -0.285434    0.000142
      6          1           0       -0.952137   -1.535228    0.879069
      7          1           0       -2.076459   -0.490585   -0.000256
      8          1           0       -0.951917   -1.535228   -0.879301
      9          1           0        1.606004   -0.904193   -0.877717
     10          1           0        2.108940    0.547551    0.000266
     11          1           0        1.605803   -0.904290    0.877977
 ---------------------------------------------------------------------

 SCF Done:  E(UB2PLYPD3) =  -156.232760881     A.U. after    1 cycles
 E2(B2PLYPD3) =    -0.2116410584D+00 E(B2PLYPD3) =    -0.15644440193913D+03
 E2(B2PLYPD3) =    -0.2116410584D+00 E(B2PLYPD3) =    -0.15644440193913D+03

 The electronic state is 2-A.
 Alpha  occ. eigenvalues --  -10.62677 -10.62206 -10.61369 -10.60944  -0.93145
 Alpha  occ. eigenvalues --   -0.80249  -0.78778  -0.60666  -0.52954  -0.50295
 Alpha  occ. eigenvalues --   -0.49702  -0.45487  -0.44243  -0.42502  -0.30546
 Alpha  occ. eigenvalues --   -0.29345
 Alpha virt. eigenvalues --    0.07846   0.07847   0.11883   0.12953   0.15004
 Alpha virt. eigenvalues --    0.15130   0.17711   0.18996   0.20552   0.25116
 Alpha virt. eigenvalues --    0.27551   0.29968   0.31290   0.32234   0.36725

  Beta  occ. eigenvalues --  -10.62985 -10.61157 -10.60817 -10.60192  -0.92234
  Beta  occ. eigenvalues --   -0.79848  -0.75723  -0.58938  -0.52335  -0.50549
  Beta  occ. eigenvalues --   -0.47967  -0.45508  -0.43535  -0.41777  -0.29128
  Beta virt. eigenvalues --    0.00476   0.07914   0.08821   0.12361   0.13535
  Beta virt. eigenvalues --    0.15105   0.15220   0.18012   0.19038   0.20638
  Beta virt. eigenvalues --    0.25736   0.27608   0.30038   0.31814   0.34368

 Mulliken charges and spin densities:
               1          2
     1  C   -0.292499   1.090001
     2  C    0.087132  -0.203378
     3  H    0.152395   0.019811
     4  C   -0.270671   0.073079
     5  C   -0.272786   0.038830
     6  H    0.097322  -0.003172
     7  H    0.102216  -0.004027
     8  H    0.097321  -0.003171
     9  H    0.095753  -0.004924
    10  H    0.108067   0.001875
    11  H    0.095751  -0.004923
 Sum of Mulliken charges =  -0.00000   1.00000

 Dipole moment (field-independent basis, Debye):
    X=             -0.3558    Y=             -0.9029    Z=             -0.0001  Tot=              0.9705
 Quadrupole moment (field-independent basis, Debye-Ang):
   XX=            -24.8873   YY=            -26.6767   ZZ=            -27.4482
   XY=             -1.2442   XZ=              0.0002   YZ=             -0.0001

  Exact polarizability:  49.190  -3.641  57.996   0.001   0.000  35.566
 Approx polarizability:  49.340  -5.148  64.945   0.001  -0.000  42.867

                      1                      2                      3
                      A                      A                      A
 Frequencies --    167.8928               209.9898               361.4795
 Red. masses --      1.0246                 1.0878                 2.1657
 Frc consts  --      0.0170                 0.0283                 0.1667
 IR Inten    --      0.0079                 0.1145                 0.0388

                      4                      5                      6
                      A                      A                      A
 Frequencies --    398.2517               431.0620               684.5905
 Red. masses --      2.2579                 2.2619                 1.2204
 Frc consts  --      0.2110                 0.2476                 0.3370
 IR Inten    --      4.7177                 6.3320                43.7945

                      7                      8                      9
                      A                      A                      A
 Frequencies --    803.0789               879.1590               967.2344
 Red. masses --      2.7811                 1.6302                 1.4310
 Frc consts  --      1.0568                 0.7424                 0.7888
 IR Inten    --      3.3928                23.5670                 0.0018

                     10                     11                     12
                      A                      A                      A
 Frequencies --    974.8530              1101.4014              1105.5303
 Red. masses --      1.2259                 1.5146                 1.6182
 Frc consts  --      0.6864                 1.0825                 1.1652
 IR Inten    --      2.2980                 1.9225                 0.0295

                     13                     14                     15
                      A                      A                      A
 Frequencies --   1214.9817              1401.5362              1419.2532
 Red. masses --      3.5838                 1.2360                 1.2313
 Frc consts  --      3.1170                 1.4304                 1.4613
 IR Inten    --      5.8312                 3.2535                 0.4009

                     16                     17                     18
                      A                      A                      A
 Frequencies --   1487.3288              1493.2413              1497.6706
 Red. masses --      1.0463                 1.0462                 1.0826
 Frc consts  --      1.3637                 1.3744                 1.4308
 IR Inten    --      0.1250                 6.0596                 8.6669

                     19                     20                     21
                      A                      A                      A
 Frequencies --   1504.8789              1717.3556              3038.5186
 Red. masses --      1.0428                 5.9458                 1.0364
 Frc consts  --      1.3914                10.3319                 5.6378
 IR Inten    --     15.5348                 5.6728                17.1252

                     22                     23                     24
                      A                      A                      A
 Frequencies --   3042.2322              3093.5628              3096.6326
 Red. masses --      1.0369                 1.1001                 1.1004
 Frc consts  --      5.6543                 6.2027                 6.2168
 IR Inten    --     33.7546                 9.2232                29.1454

                     25                     26                     27
                      A                      A                      A
 Frequencies --   3140.5732              3148.2999              3255.2371
 Red. masses --      1.1003                 1.0998                 1.1030
 Frc consts  --      6.3939                 6.4227                 6.8863
 IR Inten    --     19.3314                15.0998                 0.3972

 - Thermochemistry -
 -------------------
 Temperature   298.150 Kelvin.  Pressure   1.00000 Atm.
 Atom     1 has atomic number  6 and mass  12.00000

 Molecular mass:    55.05478 amu.
 Principal axes and moments of inertia in atomic units:
                           1         2         3
     Eigenvalues --   181.27441 212.77709 371.83006
           X            0.99919  -0.04016  -0.00010
           Y            0.04016   0.99919  -0.00002
           Z            0.00011   0.00002   1.00000
 This molecule is an asymmetric top.
 Rotational symmetry number  1.
 Rotational temperatures (Kelvin)      0.47781     0.40706     0.23294
 Rotational constants (GHZ):           9.95585     8.48184     4.85367
 Zero-point vibrational energy     249037.5 (Joules/Mol)
                                   59.52140 (Kcal/Mol)
 Warning -- explicit consideration of   5 degrees of freedom as
           vibrations may cause significant error
 Vibrational temperatures:    241.56   302.13   520.09   573.00   620.20
          (Kelvin)            984.97  1155.45  1264.91  1391.63  1402.60
                             1584.67  1590.61  1748.09  2016.50  2041.99
                             2139.93  2148.44  2154.81  2165.19  2470.89
                             4371.75  4377.09  4450.95  4455.36  4518.58
                             4529.70  4683.56

 Zero-point correction=                           0.094853 (Hartree/Particle)
 Thermal correction to Energy=                    0.100223
 Thermal correction to Enthalpy=                  0.101167
 Thermal correction to Gibbs Free Energy=         0.066921
 Sum of electronic and zero-point Energies=           -156.349549
 Sum of electronic and thermal Energies=              -156.344179
 Sum of electronic and thermal Enthalpies=            -156.343235
 Sum of electronic and thermal Free Energies=         -156.377481

                     E (Thermal)             CV                S
                      KCal/Mol        Cal/Mol-Kelvin    Cal/Mol-Kelvin
 Total                   62.891             18.244             72.076
 Electronic               0.000              0.000              1.377
 Translational            0.889              2.981             37.939
 Rotational               0.889              2.981             24.176
 Vibrational             61.113             12.283              8.583
 Vibration     1          0.625              1.882              2.459
 Vibration     2          0.642              1.826              2.044
 Vibration     3          0.736              1.552              1.116
 Vibration     4          0.765              1.474              0.969
 Vibration     5          0.792              1.403              0.855

 Optimization completed.
    -- Stationary point found.
 Normal termination of Gaussian 16 at Sat Jun  1 03:57:54 2019.
