 Gaussian 16, Revision B.01,
 Gaussian 16:  ES64L-G16RevB.01 20-Dec-2017

 -----------------------------------------------
 # opt=maxcyc=500 freq=noraman uB2PLYPD3/cc-pvtz
 -----------------------------------------------

 -------------------
 Title Card Required
 -------------------
 Symbolic Z-matrix:
 Charge =  0 Multiplicity = 2

 SCF Done:  E(UB2PLYPD3) =  -157.458213489     A.U. after   14 cycles
 E2(B2PLYPD3) =    -0.2226771267D+00 E(B2PLYPD3) =    -0.15768089061560D+03
 SCF Done:  E(UB2PLYPD3) =  -157.470274554     A.U. after   13 cycles
 E2(B2PLYPD3) =    -0.2218126123D+00 E(B2PLYPD3) =    -0.15769208716621D+03
 SCF Done:  E(UB2PLYPD3) =  -157.472913405     A.U. after   11 cycles
 E2(B2PLYPD3) =    -0.2217627340D+00 E(B2PLYPD3) =    -0.15769467613854D+03
 SCF Done:  E(UB2PLYPD3) =  -157.473353312     A.U. after   11 cycles
 E2(B2PLYPD3) =    -0.2218411633D+00 E(B2PLYPD3) =    -0.15769519447527D+03
 SCF Done:  E(UB2PLYPD3) =  -157.473387807     A.U. after    9 cycles
 E2(B2PLYPD3) =    -0.2218277922D+00 E(B2PLYPD3) =    -0.15769521559902D+03
 SCF Done:  E(UB2PLYPD3) =  -157.473393909     A.U. after    8 cycles
 E2(B2PLYPD3) =    -0.2218249045D+00 E(B2PLYPD3) =    -0.15769521881388D+03
 Optimization completed.
    -- Stationary point found.
 Normal termination of Gaussian 16 at Sat Jun  1 03:02:43 2019.

 ----------------------------------------------------------------------
 #N Geom=AllCheck Guess=TCheck SCRF=Check GenChk UB2PLYPD3(FC)/CC-pVTZ
 Freq
 ----------------------------------------------------------------------

 Structure from the checkpoint file:  "/localscratch/339542/Gau-54693.chk"
 -------------------
 Title Card Required
 -------------------
 Charge =  0 Multiplicity = 2

                         Standard orientation:
 ---------------------------------------------------------------------
 Center     Atomic      Atomic             Coordinates (Angstroms)
 Number     Number       Type             X           Y           Z
 ---------------------------------------------------------------------
      1          6           0       -1.243968    0.799074    0.016908
      2          6           0       -0.000000   -0.000036   -0.168929
      3          1           0       -1.154138    1.792830   -0.422830
      4          1           0       -2.110281    0.304622   -0.423597
      5          1           0       -1.474385    0.946515    1.082858
      6          6           0       -0.070042   -1.476796    0.016880
      7          6           0        1.314010    0.677759    0.016908
      8          1           0       -0.083033   -1.750072    1.082770
      9          1           0       -0.975242   -1.895990   -0.423145
     10          1           0        1.557342    0.802755    1.082857
     11          1           0        2.129648    0.103546   -0.423591
     12          1           0        1.318622    1.675552   -0.422840
     13          1           0        0.791464   -1.979762   -0.423082
 ---------------------------------------------------------------------

 SCF Done:  E(UB2PLYPD3) =  -157.473393909     A.U. after    1 cycles
 E2(B2PLYPD3) =    -0.2218249005D+00 E(B2PLYPD3) =    -0.15769521880989D+03
 E2(B2PLYPD3) =    -0.2218249005D+00 E(B2PLYPD3) =    -0.15769521880989D+03

 The electronic state is 2-A.
 Alpha  occ. eigenvalues --  -10.61585 -10.59970 -10.59969 -10.59965  -0.92351
 Alpha  occ. eigenvalues --   -0.79408  -0.79405  -0.62261  -0.51922  -0.50865
 Alpha  occ. eigenvalues --   -0.50865  -0.44995  -0.44994  -0.42955  -0.40283
 Alpha  occ. eigenvalues --   -0.40280  -0.22906
 Alpha virt. eigenvalues --    0.07326   0.12246   0.12246   0.14526   0.14529
 Alpha virt. eigenvalues --    0.14530   0.18616   0.18617   0.19904   0.21610
 Alpha virt. eigenvalues --    0.25400   0.25402   0.30464   0.30622   0.30622

  Beta  occ. eigenvalues --  -10.60114 -10.60110 -10.60107 -10.59825  -0.89886
  Beta  occ. eigenvalues --   -0.79201  -0.79198  -0.59446  -0.50392  -0.50392
  Beta  occ. eigenvalues --   -0.48836  -0.44142  -0.44141  -0.42818  -0.39720
  Beta  occ. eigenvalues --   -0.39718
  Beta virt. eigenvalues --    0.03649   0.07543   0.12313   0.12313   0.14584
  Beta virt. eigenvalues --    0.14585   0.15447   0.18844   0.18846   0.20680
  Beta virt. eigenvalues --    0.21593   0.25725   0.25727   0.30807   0.30807

 Mulliken charges and spin densities:
               1          2
     1  C   -0.288248  -0.072560
     2  C    0.025953   0.947567
     3  H    0.097426   0.011130
     4  H    0.097430   0.011163
     5  H    0.084737   0.067735
     6  C   -0.288320  -0.072552
     7  C   -0.288244  -0.072561
     8  H    0.084739   0.067753
     9  H    0.097469   0.011148
    10  H    0.084737   0.067736
    11  H    0.097428   0.011163
    12  H    0.097427   0.011131
    13  H    0.097467   0.011146
 Sum of Mulliken charges =  -0.00000   1.00000

 Dipole moment (field-independent basis, Debye):
    X=             -0.0000    Y=             -0.0002    Z=              0.1908  Tot=              0.1908
 Quadrupole moment (field-independent basis, Debye-Ang):
   XX=            -27.7739   YY=            -27.7731   ZZ=            -28.3855
   XY=              0.0000   XZ=              0.0000   YZ=             -0.0000

  Exact polarizability:  53.607  -0.000  53.604  -0.000  -0.001  43.037
 Approx polarizability:  54.256  -0.000  54.254  -0.000  -0.001  50.663

                      1                      2                      3
                      A                      A                      A
 Frequencies --    139.0260               144.3834               145.7026
 Red. masses --      1.0107                 1.0711                 1.0743
 Frc consts  --      0.0115                 0.0132                 0.0134
 IR Inten    --      0.0006                 0.0135                 0.0141

                      4                      5                      6
                      A                      A                      A
 Frequencies --    264.9567               377.7602               378.0556
 Red. masses --      2.2749                 2.0613                 2.0613
 Frc consts  --      0.0941                 0.1733                 0.1736
 IR Inten    --      2.8996                 0.1294                 0.1296

                      7                      8                      9
                      A                      A                      A
 Frequencies --    769.6751               942.0538               942.1284
 Red. masses --      3.5731                 1.2503                 1.2504
 Frc consts  --      1.2471                 0.6537                 0.6539
 IR Inten    --      1.5619                 0.4965                 0.4924

                     10                     11                     12
                      A                      A                      A
 Frequencies --    976.3253              1019.2470              1019.3711
 Red. masses --      1.2162                 1.6253                 1.6251
 Frc consts  --      0.6831                 0.9948                 0.9950
 IR Inten    --      0.0000                 1.6779                 1.6720

                     13                     14                     15
                      A                      A                      A
 Frequencies --   1109.1517              1308.2827              1308.4411
 Red. masses --      1.6345                 2.8328                 2.8302
 Frc consts  --      1.1848                 2.8567                 2.8548
 IR Inten    --      0.4294                 5.5460                 5.5269

                     16                     17                     18
                      A                      A                      A
 Frequencies --   1406.6380              1406.6998              1432.1409
 Red. masses --      1.2985                 1.2983                 1.2093
 Frc consts  --      1.5137                 1.5137                 1.4613
 IR Inten    --      4.5222                 4.5195                 2.4045

                     19                     20                     21
                      A                      A                      A
 Frequencies --   1480.9652              1484.5364              1484.6136
 Red. masses --      1.0434                 1.0618                 1.0617
 Frc consts  --      1.3483                 1.3787                 1.3788
 IR Inten    --      0.0001                 2.9935                 2.9953

                     22                     23                     24
                      A                      A                      A
 Frequencies --   1503.1934              1504.7925              1504.8131
 Red. masses --      1.0560                 1.0693                 1.0694
 Frc consts  --      1.4059                 1.4267                 1.4267
 IR Inten    --     17.9609                 2.5764                 2.5762

                     25                     26                     27
                      A                      A                      A
 Frequencies --   2951.8982              2952.2130              2958.9698
 Red. masses --      1.0596                 1.0596                 1.0620
 Frc consts  --      5.4398                 5.4412                 5.4782
 IR Inten    --     31.9104                31.8797                79.4620

                     28                     29                     30
                      A                      A                      A
 Frequencies --   3061.4529              3062.0039              3063.8563
 Red. masses --      1.0691                 1.0689                 1.0678
 Frc consts  --      5.9035                 5.9049                 5.9058
 IR Inten    --     19.6425                21.1137                37.6507

                     31                     32                     33
                      A                      A                      A
 Frequencies --   3106.6342              3110.7310              3111.5466
 Red. masses --      1.1027                 1.1015                 1.1016
 Frc consts  --      6.2703                 6.2802                 6.2837
 IR Inten    --      0.5334                44.1202                43.4296

 - Thermochemistry -
 -------------------
 Temperature   298.150 Kelvin.  Pressure   1.00000 Atm.
 Atom     1 has atomic number  6 and mass  12.00000

 Molecular mass:    57.07043 amu.
 Principal axes and moments of inertia in atomic units:
                           1         2         3
     Eigenvalues --   223.91627 223.92581 412.33128
           X            0.99998   0.00555  -0.00000
           Y           -0.00555   0.99998  -0.00001
           Z            0.00000   0.00001   1.00000
 This molecule is an asymmetric top.
 Rotational symmetry number  1.
 Rotational temperatures (Kelvin)      0.38681     0.38680     0.21006
 Rotational constants (GHZ):           8.05989     8.05955     4.37692
 Zero-point vibrational energy     307633.2 (Joules/Mol)
                                   73.52611 (Kcal/Mol)
 Warning -- explicit consideration of   6 degrees of freedom as
           vibrations may cause significant error
 Vibrational temperatures:    200.03   207.74   209.63   381.21   543.51
          (Kelvin)            543.94  1107.39  1355.41  1355.51  1404.71
                             1466.47  1466.65  1595.82  1882.33  1882.55
                             2023.84  2023.93  2060.53  2130.78  2135.92
                             2136.03  2162.76  2165.06  2165.09  4247.12
                             4247.58  4257.30  4404.75  4405.54  4408.21
                             4469.75  4475.65  4476.82

 Zero-point correction=                           0.117171 (Hartree/Particle)
 Thermal correction to Energy=                    0.123485
 Thermal correction to Enthalpy=                  0.124429
 Thermal correction to Gibbs Free Energy=         0.087863
 Sum of electronic and zero-point Energies=           -157.578048
 Sum of electronic and thermal Energies=              -157.571734
 Sum of electronic and thermal Enthalpies=            -157.570790
 Sum of electronic and thermal Free Energies=         -157.607355

                     E (Thermal)             CV                S
                      KCal/Mol        Cal/Mol-Kelvin    Cal/Mol-Kelvin
 Total                   77.488             20.496             76.958
 Electronic               0.000              0.000              1.377
 Translational            0.889              2.981             38.046
 Rotational               0.889              2.981             24.540
 Vibrational             75.710             14.534             12.995
 Vibration     1          0.615              1.914              2.817
 Vibration     2          0.616              1.909              2.745
 Vibration     3          0.617              1.907              2.728
 Vibration     4          0.671              1.737              1.629
 Vibration     5          0.748              1.518              1.048
 Vibration     6          0.748              1.517              1.047

 Optimization completed.
    -- Stationary point found.
 Normal termination of Gaussian 16 at Sat Jun  1 03:23:11 2019.
