 Gaussian 16, Revision B.01,
 Gaussian 16:  ES64L-G16RevB.01 20-Dec-2017

 -----------------------------------------------
 # opt=maxcyc=500 freq=noraman uB2PLYPD3/cc-pvtz
 -----------------------------------------------

 -------------------
 Title Card Required
 -------------------
 Symbolic Z-matrix:
 Charge =  0 Multiplicity = 2

 SCF Done:  E(UB2PLYPD3) =  -115.723693708     A.U. after   18 cycles
 E2(B2PLYPD3) =    -0.1459785664D+00 E(B2PLYPD3) =    -0.11586967227447D+03
 SCF Done:  E(UB2PLYPD3) =  -115.723484883     A.U. after   11 cycles
 E2(B2PLYPD3) =    -0.1462585779D+00 E(B2PLYPD3) =    -0.11586974346059D+03
 Optimization completed.
    -- Stationary point found.
 Normal termination of Gaussian 16 at Sat Jun  1 04:23:49 2019.

 ----------------------------------------------------------------------
 #N Geom=AllCheck Guess=TCheck SCRF=Check GenChk UB2PLYPD3(FC)/CC-pVTZ
 Freq
 ----------------------------------------------------------------------

 Structure from the checkpoint file:  "/localscratch/339542/Gau-32298.chk"
 -------------------
 Title Card Required
 -------------------
 Charge =  0 Multiplicity = 2

                         Standard orientation:
 ---------------------------------------------------------------------
 Center     Atomic      Atomic             Coordinates (Angstroms)
 Number     Number       Type             X           Y           Z
 ---------------------------------------------------------------------
      1          6           0        0.000000    0.000000    1.541809
      2          6           0        0.000000    0.000000    0.335817
      3          6           0        0.000000    0.000000   -1.124615
      4          1           0       -0.000000   -1.019191   -1.506022
      5          1           0       -0.882646    0.509596   -1.506022
      6          1           0        0.882646    0.509596   -1.506022
 ---------------------------------------------------------------------

 SCF Done:  E(UB2PLYPD3) =  -115.723484883     A.U. after    1 cycles
 E2(B2PLYPD3) =    -0.1462585773D+00 E(B2PLYPD3) =    -0.11586974345998D+03
 E2(B2PLYPD3) =    -0.1462585773D+00 E(B2PLYPD3) =    -0.11586974345998D+03

 The electronic state is 2-A1.
 Alpha  occ. eigenvalues --  -10.66377 -10.64466 -10.63338  -0.90933  -0.82829
 Alpha  occ. eigenvalues --   -0.55941  -0.50760  -0.50760  -0.46662  -0.34272
 Alpha  occ. eigenvalues --   -0.34272
 Alpha virt. eigenvalues --    0.08070   0.09403   0.09403   0.16050   0.16050
 Alpha virt. eigenvalues --    0.21193   0.22989   0.30470   0.30470   0.33392
 Alpha virt. eigenvalues --    0.37224   0.37224   0.47486   0.49870   0.49870

  Beta  occ. eigenvalues --  -10.64372 -10.63592 -10.63287  -0.90317  -0.79997
  Beta  occ. eigenvalues --   -0.54799  -0.51107  -0.51107  -0.32330  -0.32330
  Beta virt. eigenvalues --   -0.09499   0.08063   0.11277   0.11277   0.16816
  Beta virt. eigenvalues --    0.16816   0.21469   0.25851   0.30472   0.30472
  Beta virt. eigenvalues --    0.33653   0.38271   0.38271   0.49810   0.49810

 Mulliken charges and spin densities:
               1          2
     1  C    0.001836   1.278635
     2  C   -0.100660  -0.292676
     3  C   -0.271801   0.041839
     4  H    0.123542  -0.009266
     5  H    0.123542  -0.009266
     6  H    0.123542  -0.009266
 Sum of Mulliken charges =  -0.00000   1.00000

 Dipole moment (field-independent basis, Debye):
    X=              0.0000    Y=              0.0000    Z=             -1.5716  Tot=              1.5716
 Quadrupole moment (field-independent basis, Debye-Ang):
   XX=            -18.8751   YY=            -18.8751   ZZ=            -16.4062
   XY=             -0.0000   XZ=              0.0000   YZ=             -0.0000

  Exact polarizability:  30.419   0.000  30.419  -0.000  -0.000  43.833
 Approx polarizability:  26.463  -0.000  26.463   0.000  -0.000  52.910

                      1                      2                      3
                      E                      E                     A1
 Frequencies --    125.8282               125.8282               946.6270
 Red. masses --      5.5308                 5.5308                 4.7999
 Frc consts  --      0.0516                 0.0516                 2.5342
 IR Inten    --     12.5053                12.5054                 3.4364

                      4                      5                      6
                      E                      E                     A1
 Frequencies --   1014.4625              1014.4625              1421.1550
 Red. masses --      1.2849                 1.2849                 1.2186
 Frc consts  --      0.7791                 0.7791                 1.4501
 IR Inten    --     39.6186                39.6184                 0.3791

                      7                      8                      9
                      E                      E                     A1
 Frequencies --   1490.3915              1490.3919              2264.1770
 Red. masses --      1.0425                 1.0425                11.8815
 Frc consts  --      1.3644                 1.3644                35.8875
 IR Inten    --      1.3374                 1.3376                19.5284

                     10                     11                     12
                     A1                      E                      E
 Frequencies --   3064.3516              3134.8198              3134.8201
 Red. masses --      1.0335                 1.1013                 1.1013
 Frc consts  --      5.7179                 6.3762                 6.3762
 IR Inten    --     13.1216                 2.7639                 2.7639

 - Thermochemistry -
 -------------------
 Temperature   298.150 Kelvin.  Pressure   1.00000 Atm.
 Atom     1 has atomic number  6 and mass  12.00000

 Molecular mass:    39.02348 amu.
 Principal axes and moments of inertia in atomic units:
                           1         2         3
     Eigenvalues --    11.21542 189.15730 189.15730
           X            0.00000  -0.45479   0.89060
           Y            0.00000   0.89060   0.45479
           Z            1.00000  -0.00000  -0.00000
 This molecule is a prolate symmetric top.
 Rotational symmetry number  3.
 Rotational temperatures (Kelvin)      7.72275     0.45789     0.45789
 Rotational constants (GHZ):         160.91606     9.54095     9.54095
 Zero-point vibrational energy     115004.9 (Joules/Mol)
                                   27.48683 (Kcal/Mol)
 Warning -- explicit consideration of   2 degrees of freedom as
           vibrations may cause significant error
 Vibrational temperatures:    181.04   181.04  1361.99  1459.59  1459.59
          (Kelvin)           2044.73  2144.34  2144.34  3257.65  4408.92
                             4510.31  4510.31

 Zero-point correction=                           0.043803 (Hartree/Particle)
 Thermal correction to Energy=                    0.048140
 Thermal correction to Enthalpy=                  0.049085
 Thermal correction to Gibbs Free Energy=         0.019113
 Sum of electronic and zero-point Energies=           -115.825940
 Sum of electronic and thermal Energies=              -115.821603
 Sum of electronic and thermal Enthalpies=            -115.820659
 Sum of electronic and thermal Free Energies=         -115.850631

                     E (Thermal)             CV                S
                      KCal/Mol        Cal/Mol-Kelvin    Cal/Mol-Kelvin
 Total                   30.209             11.237             63.082
 Electronic               0.000              0.000              1.377
 Translational            0.889              2.981             36.913
 Rotational               0.889              2.981             18.440
 Vibrational             28.431              5.275              6.351
 Vibration     1          0.611              1.927              3.009
 Vibration     2          0.611              1.927              3.009

 Optimization completed.
    -- Stationary point found.
 Normal termination of Gaussian 16 at Sat Jun  1 04:25:43 2019.
