 Gaussian 16, Revision B.01,
 Gaussian 16:  ES64L-G16RevB.01 20-Dec-2017

 -----------------------------------------------
 # opt=maxcyc=500 freq=noraman uB2PLYPD3/cc-pvtz
 -----------------------------------------------

 -------------------
 Title Card Required
 -------------------
 Symbolic Z-matrix:
 Charge =  0 Multiplicity = 1

 SCF Done:  E(UB2PLYPD3) =  -116.432708078     A.U. after   11 cycles
 E2(B2PLYPD3) =    -0.1592217118D+00 E(B2PLYPD3) =    -0.11659192979003D+03
 SCF Done:  E(UB2PLYPD3) =  -116.432377088     A.U. after    8 cycles
 E2(B2PLYPD3) =    -0.1596776936D+00 E(B2PLYPD3) =    -0.11659205478195D+03
 Optimization completed.
    -- Stationary point found.
 Normal termination of Gaussian 16 at Sat Jun  1 04:20:57 2019.

 ----------------------------------------------------------------------
 #N Geom=AllCheck Guess=TCheck SCRF=Check GenChk UB2PLYPD3(FC)/CC-pVTZ
 Freq
 ----------------------------------------------------------------------

 Structure from the checkpoint file:  "/localscratch/339542/Gau-43378.chk"
 -------------------
 Title Card Required
 -------------------
 Charge =  0 Multiplicity = 1

                         Standard orientation:
 ---------------------------------------------------------------------
 Center     Atomic      Atomic             Coordinates (Angstroms)
 Number     Number       Type             X           Y           Z
 ---------------------------------------------------------------------
      1          6           0        0.000000    0.000000    1.422009
      2          1           0        0.000000    0.000000    2.481264
      3          6           0        0.000000    0.000000    0.217445
      4          6           0        0.000000    0.000000   -1.240060
      5          1           0       -0.000000   -1.018092   -1.625876
      6          1           0       -0.881694    0.509046   -1.625876
      7          1           0        0.881694    0.509046   -1.625876
 ---------------------------------------------------------------------

 SCF Done:  E(UB2PLYPD3) =  -116.432377088     A.U. after    1 cycles
 E2(B2PLYPD3) =    -0.1596776937D+00 E(B2PLYPD3) =    -0.11659205478197D+03
 E2(B2PLYPD3) =    -0.1596776937D+00 E(B2PLYPD3) =    -0.11659205478197D+03

 The electronic state is 1-A1.
 Alpha  occ. eigenvalues --  -10.63650 -10.61989 -10.60330  -0.89736  -0.81063
 Alpha  occ. eigenvalues --   -0.60968  -0.52693  -0.50225  -0.50225  -0.31935
 Alpha  occ. eigenvalues --   -0.31935
 Alpha virt. eigenvalues --    0.08317   0.10256   0.10256   0.11322   0.16519
 Alpha virt. eigenvalues --    0.16519   0.21389   0.28098   0.30882   0.30882
 Alpha virt. eigenvalues --    0.34958   0.38428   0.38428   0.44435   0.49705

  Beta  occ. eigenvalues --  -10.63650 -10.61989 -10.60330  -0.89736  -0.81063
  Beta  occ. eigenvalues --   -0.60968  -0.52693  -0.50225  -0.50225  -0.31935
  Beta  occ. eigenvalues --   -0.31935
  Beta virt. eigenvalues --    0.08317   0.10256   0.10256   0.11322   0.16519
  Beta virt. eigenvalues --    0.16519   0.21389   0.28098   0.30882   0.30882
  Beta virt. eigenvalues --    0.34958   0.38428   0.38428   0.44435   0.49705

 Mulliken charges and spin densities:
               1          2
     1  C   -0.190452  -0.000000
     2  H    0.169042   0.000000
     3  C   -0.045735   0.000000
     4  C   -0.291280  -0.000000
     5  H    0.119475   0.000000
     6  H    0.119475   0.000000
     7  H    0.119475   0.000000
 Sum of Mulliken charges =   0.00000   0.00000

 Dipole moment (field-independent basis, Debye):
    X=              0.0000    Y=              0.0000    Z=             -0.8011  Tot=              0.8011
 Quadrupole moment (field-independent basis, Debye-Ang):
   XX=            -19.7628   YY=            -19.7628   ZZ=            -13.9449
   XY=             -0.0000   XZ=              0.0000   YZ=             -0.0000

  Exact polarizability:  23.929   0.000  23.929   0.000  -0.000  48.272
 Approx polarizability:  27.682  -0.000  27.682   0.000  -0.000  57.807

                      1                      2                      3
                      E                      E                      E
 Frequencies --    337.0619               337.0621               648.9659
 Red. masses --      3.1696                 3.1696                 1.2340
 Frc consts  --      0.2122                 0.2122                 0.3062
 IR Inten    --      7.8901                 7.8901                46.4676

                      4                      5                      6
                      E                     A1                      E
 Frequencies --    648.9659               943.3546              1065.5272
 Red. masses --      1.2340                 4.1195                 1.3959
 Frc consts  --      0.3062                 2.1600                 0.9337
 IR Inten    --     46.4677                 0.5499                 0.3210

                      7                      8                      9
                      E                     A1                      E
 Frequencies --   1065.5272              1424.9574              1494.4539
 Red. masses --      1.3959                 1.2298                 1.0389
 Frc consts  --      0.9337                 1.4713                 1.3671
 IR Inten    --      0.3210                 0.0821                 7.6855

                     10                     11                     12
                      E                     A1                     A1
 Frequencies --   1494.4545              2194.5111              3059.4171
 Red. masses --      1.0389                 6.1200                 1.0340
 Frc consts  --      1.3671                17.3651                 5.7023
 IR Inten    --      7.6859                 4.8913                15.6524

                     13                     14                     15
                      E                      E                     A1
 Frequencies --   3126.8824              3126.8827              3496.0275
 Red. masses --      1.1013                 1.1013                 1.1554
 Frc consts  --      6.3440                 6.3440                 8.3205
 IR Inten    --      7.0996                 7.0997                58.5196

 - Thermochemistry -
 -------------------
 Temperature   298.150 Kelvin.  Pressure   1.00000 Atm.
 Atom     1 has atomic number  6 and mass  12.00000

 Molecular mass:    40.03130 amu.
 Principal axes and moments of inertia in atomic units:
                           1         2         3
     Eigenvalues --    11.19125 210.36688 210.36688
           X            0.00000   0.45416   0.89092
           Y            0.00000   0.89092  -0.45416
           Z            1.00000  -0.00000  -0.00000
 This molecule is a prolate symmetric top.
 Rotational symmetry number  3.
 Rotational temperatures (Kelvin)      7.73943     0.41173     0.41173
 Rotational constants (GHZ):         161.26361     8.57902     8.57902
 Zero-point vibrational energy     146327.5 (Joules/Mol)
                                   34.97312 (Kcal/Mol)
 Warning -- explicit consideration of   2 degrees of freedom as
           vibrations may cause significant error
 Vibrational temperatures:    484.96   484.96   933.72   933.72  1357.28
          (Kelvin)           1533.06  1533.06  2050.20  2150.19  2150.19
                             3157.41  4401.82  4498.89  4498.89  5030.00

 Zero-point correction=                           0.055733 (Hartree/Particle)
 Thermal correction to Energy=                    0.059707
 Thermal correction to Enthalpy=                  0.060651
 Thermal correction to Gibbs Free Energy=         0.032554
 Sum of electronic and zero-point Energies=           -116.536322
 Sum of electronic and thermal Energies=              -116.532348
 Sum of electronic and thermal Enthalpies=            -116.531403
 Sum of electronic and thermal Free Energies=         -116.559501

                     E (Thermal)             CV                S
                      KCal/Mol        Cal/Mol-Kelvin    Cal/Mol-Kelvin
 Total                   37.467             12.346             59.137
 Electronic               0.000              0.000              0.000
 Translational            0.889              2.981             36.989
 Rotational               0.889              2.981             18.649
 Vibrational             35.689              6.384              3.499
 Vibration     1          0.718              1.601              1.226
 Vibration     2          0.718              1.601              1.226

 Optimization completed.
    -- Stationary point found.
 Normal termination of Gaussian 16 at Sat Jun  1 04:23:18 2019.
