 Gaussian 16, Revision B.01,
 Gaussian 16:  ES64L-G16RevB.01 20-Dec-2017

 -----------------------------------------------
 # opt=maxcyc=500 freq=noraman uB2PLYPD3/cc-pvtz
 -----------------------------------------------

 -------------------
 Title Card Required
 -------------------
 Symbolic Z-matrix:
 Charge =  0 Multiplicity = 2

 SCF Done:  E(UB2PLYPD3) =  -115.791844066     A.U. after   19 cycles
 E2(B2PLYPD3) =    -0.1463964865D+00 E(B2PLYPD3) =    -0.11593824055202D+03
 SCF Done:  E(UB2PLYPD3) =  -115.791757731     A.U. after   12 cycles
 E2(B2PLYPD3) =    -0.1465340015D+00 E(B2PLYPD3) =    -0.11593829173262D+03
 SCF Done:  E(UB2PLYPD3) =  -115.791759535     A.U. after   11 cycles
 E2(B2PLYPD3) =    -0.1465334339D+00 E(B2PLYPD3) =    -0.11593829296852D+03
 Optimization completed.
    -- Stationary point found.
 Normal termination of Gaussian 16 at Sat Jun  1 04:26:24 2019.

 ----------------------------------------------------------------------
 #N Geom=AllCheck Guess=TCheck SCRF=Check GenChk UB2PLYPD3(FC)/CC-pVTZ
 Freq
 ----------------------------------------------------------------------

 Structure from the checkpoint file:  "/localscratch/339542/Gau-32782.chk"
 -------------------
 Title Card Required
 -------------------
 Charge =  0 Multiplicity = 2

                         Standard orientation:
 ---------------------------------------------------------------------
 Center     Atomic      Atomic             Coordinates (Angstroms)
 Number     Number       Type             X           Y           Z
 ---------------------------------------------------------------------
      1          6           0       -0.000039    1.337329    0.000000
      2          1           0       -0.000074    2.397087    0.000000
      3          6           0        0.000000    0.118084    0.000000
      4          6           0        0.000043   -1.253784   -0.000000
      5          1           0        0.000025   -1.803429    0.927876
      6          1           0        0.000025   -1.803429   -0.927876
 ---------------------------------------------------------------------

 SCF Done:  E(UB2PLYPD3) =  -115.791759535     A.U. after    1 cycles
 E2(B2PLYPD3) =    -0.1465334352D+00 E(B2PLYPD3) =    -0.11593829296981D+03
 E2(B2PLYPD3) =    -0.1465334352D+00 E(B2PLYPD3) =    -0.11593829296981D+03

 The electronic state is 2-A'.
 Alpha  occ. eigenvalues --  -10.64640 -10.62943 -10.62661  -0.91022  -0.81870
 Alpha  occ. eigenvalues --   -0.62404  -0.55200  -0.52467  -0.40740  -0.33286
 Alpha  occ. eigenvalues --   -0.27255
 Alpha virt. eigenvalues --    0.08792   0.09508   0.10809   0.13929   0.16048
 Alpha virt. eigenvalues --    0.22441   0.26927   0.33416   0.34236   0.35417
 Alpha virt. eigenvalues --    0.38146   0.38423   0.45268   0.48330   0.52393

  Beta  occ. eigenvalues --  -10.63474 -10.63228 -10.61773  -0.89542  -0.77902
  Beta  occ. eigenvalues --   -0.61425  -0.54548  -0.51841  -0.35658  -0.32777
  Beta virt. eigenvalues --   -0.02731   0.08842   0.10013   0.11150   0.16213
  Beta virt. eigenvalues --    0.16504   0.22562   0.27322   0.34572   0.35917
  Beta virt. eigenvalues --    0.37196   0.40313   0.42129   0.46844   0.48422

 Mulliken charges and spin densities:
               1          2
     1  C   -0.163037   0.607671
     2  H    0.169335  -0.019866
     3  C    0.055555  -0.371967
     4  C   -0.341702   0.862236
     5  H    0.139925  -0.039037
     6  H    0.139925  -0.039037
 Sum of Mulliken charges =  -0.00000   1.00000

 Dipole moment (field-independent basis, Debye):
    X=             -0.0000    Y=             -0.1435    Z=              0.0000  Tot=              0.1435
 Quadrupole moment (field-independent basis, Debye-Ang):
   XX=            -20.2403   YY=            -12.6658   ZZ=            -18.4894
   XY=             -0.0001   XZ=             -0.0000   YZ=             -0.0000

  Exact polarizability:  19.594  -0.001  56.341  -0.000  -0.000  22.464
 Approx polarizability:  22.835  -0.001  64.969   0.000   0.000  25.499

                      1                      2                      3
                     A"                     A'                     A'
 Frequencies --    348.9057               405.9986               509.7614
 Red. masses --      2.8787                 4.1804                 1.2289
 Frc consts  --      0.2065                 0.4060                 0.1881
 IR Inten    --      5.7634                 7.8555                50.8558

                      4                      5                      6
                     A"                     A'                     A"
 Frequencies --    638.1194               675.3629              1042.4956
 Red. masses --      1.2268                 1.3688                 1.4350
 Frc consts  --      0.2943                 0.3678                 0.9189
 IR Inten    --     48.6724                41.2017                 1.2021

                      7                      8                      9
                     A'                     A'                     A'
 Frequencies --   1074.1613              1473.5290              2040.8986
 Red. masses --      3.9683                 1.1880                 6.6757
 Frc consts  --      2.6977                 1.5198                16.3828
 IR Inten    --      3.0795                 0.5458                 2.8798

                     10                     11                     12
                     A'                     A"                     A'
 Frequencies --   3175.4606              3272.4660              3485.4117
 Red. masses --      1.0502                 1.1182                 1.1400
 Frc consts  --      6.2391                 7.0555                 8.1596
 IR Inten    --      2.2389                 0.3899                59.1892

 - Thermochemistry -
 -------------------
 Temperature   298.150 Kelvin.  Pressure   1.00000 Atm.
 Atom     1 has atomic number  6 and mass  12.00000

 Molecular mass:    39.02348 amu.
 Principal axes and moments of inertia in atomic units:
                           1         2         3
     Eigenvalues --     6.19715 188.55965 194.75681
           X           -0.00003   0.00000   1.00000
           Y            1.00000   0.00000   0.00003
           Z           -0.00000   1.00000  -0.00000
 This molecule is an asymmetric top.
 Rotational symmetry number  1.
 Rotational temperatures (Kelvin)     13.97640     0.45934     0.44473
 Rotational constants (GHZ):         291.22094     9.57120     9.26664
 Zero-point vibrational energy     108516.7 (Joules/Mol)
                                   25.93611 (Kcal/Mol)
 Warning -- explicit consideration of   3 degrees of freedom as
           vibrations may cause significant error
 Vibrational temperatures:    502.00   584.14   733.43   918.11   971.70
          (Kelvin)           1499.92  1545.48  2120.08  2936.40  4568.78
                             4708.35  5014.73

 Zero-point correction=                           0.041332 (Hartree/Particle)
 Thermal correction to Energy=                    0.045375
 Thermal correction to Enthalpy=                  0.046320
 Thermal correction to Gibbs Free Energy=         0.016869
 Sum of electronic and zero-point Energies=           -115.896961
 Sum of electronic and thermal Energies=              -115.892918
 Sum of electronic and thermal Enthalpies=            -115.891973
 Sum of electronic and thermal Free Energies=         -115.921424

                     E (Thermal)             CV                S
                      KCal/Mol        Cal/Mol-Kelvin    Cal/Mol-Kelvin
 Total                   28.473             12.782             61.983
 Electronic               0.000              0.000              1.377
 Translational            0.889              2.981             36.913
 Rotational               0.889              2.981             20.059
 Vibrational             26.696              6.821              3.634
 Vibration     1          0.726              1.577              1.171
 Vibration     2          0.771              1.457              0.941
 Vibration     3          0.865              1.228              0.634

 Optimization completed.
    -- Stationary point found.
 Normal termination of Gaussian 16 at Sat Jun  1 04:28:11 2019.
