 Gaussian 16, Revision B.01,
 Gaussian 16:  ES64L-G16RevB.01 20-Dec-2017

 ----------------------------------------------------------------------
 # opt=(calcfc,ts,noeigentest,maxcyc=500,modredundant) uB2PLYPD3/cc-pvt
 z scf=maxcyc=500 nosymm
 ----------------------------------------------------------------------

 -------------------
 Title Card Required
 -------------------
 Symbolic Z-matrix:
 Charge =  0 Multiplicity = 2

 SCF Done:  E(UB2PLYPD3) =  -345.587856721     A.U. after   27 cycles
 E2(B2PLYPD3) =    -0.4303299445D+00 E(B2PLYPD3) =    -0.34601818666586D+03
 E2(B2PLYPD3) =    -0.4303299445D+00 E(B2PLYPD3) =    -0.34601818666586D+03

  Exact polarizability: 104.895  -3.714  97.446   2.335   1.463  49.312
 Approx polarizability:  92.599 -11.967 115.709   3.424   3.536  60.001

 Optimization completed.
    -- Stationary point found.
 SCF Done:  E(UB2PLYPD3) =  -345.587612009     A.U. after   20 cycles
 E2(B2PLYPD3) =    -0.4304255543D+00 E(B2PLYPD3) =    -0.34601803756377D+03
 SCF Done:  E(UB2PLYPD3) =  -345.587765400     A.U. after   13 cycles
 E2(B2PLYPD3) =    -0.4303107114D+00 E(B2PLYPD3) =    -0.34601807611135D+03
 SCF Done:  E(UB2PLYPD3) =  -345.587737462     A.U. after   15 cycles
 E2(B2PLYPD3) =    -0.4303405872D+00 E(B2PLYPD3) =    -0.34601807804930D+03
 SCF Done:  E(UB2PLYPD3) =  -345.587739174     A.U. after    7 cycles
 E2(B2PLYPD3) =    -0.4303390942D+00 E(B2PLYPD3) =    -0.34601807826863D+03
 Optimization completed.
 SCF Done:  E(UB2PLYPD3) =  -345.587272087     A.U. after   19 cycles
 E2(B2PLYPD3) =    -0.4304091786D+00 E(B2PLYPD3) =    -0.34601768126596D+03
 SCF Done:  E(UB2PLYPD3) =  -345.587511288     A.U. after   18 cycles
 E2(B2PLYPD3) =    -0.4302374164D+00 E(B2PLYPD3) =    -0.34601774870484D+03
 SCF Done:  E(UB2PLYPD3) =  -345.587458214     A.U. after   17 cycles
 E2(B2PLYPD3) =    -0.4302942415D+00 E(B2PLYPD3) =    -0.34601775245572D+03
 SCF Done:  E(UB2PLYPD3) =  -345.587461893     A.U. after   16 cycles
 E2(B2PLYPD3) =    -0.4302924569D+00 E(B2PLYPD3) =    -0.34601775435040D+03
 SCF Done:  E(UB2PLYPD3) =  -345.587460545     A.U. after    9 cycles
 E2(B2PLYPD3) =    -0.4302941475D+00 E(B2PLYPD3) =    -0.34601775469296D+03
 E2(B2PLYPD3) =    -0.4303231923D+00 E(B2PLYPD3) =    -0.34601716945008D+03
 E2(B2PLYPD3) =    -0.4301507294D+00 E(B2PLYPD3) =    -0.34601726411248D+03
 E2(B2PLYPD3) =    -0.4300420989D+00 E(B2PLYPD3) =    -0.34601581426974D+03
 E2(B2PLYPD3) =    -0.4302909607D+00 E(B2PLYPD3) =    -0.34601683936782D+03
 E2(B2PLYPD3) =    -0.4298466512D+00 E(B2PLYPD3) =    -0.34601719262316D+03
 E2(B2PLYPD3) =    -0.4302385333D+00 E(B2PLYPD3) =    -0.34601727173079D+03
 E2(B2PLYPD3) =    -0.4302023893D+00 E(B2PLYPD3) =    -0.34601727331422D+03
 E2(B2PLYPD3) =    -0.4302008330D+00 E(B2PLYPD3) =    -0.34601727332704D+03
 E2(B2PLYPD3) =    -0.4301929291D+00 E(B2PLYPD3) =    -0.34601662766097D+03
 E2(B2PLYPD3) =    -0.4302904881D+00 E(B2PLYPD3) =    -0.34601528443657D+03
 E2(B2PLYPD3) =    -0.4303046907D+00 E(B2PLYPD3) =    -0.34601528468985D+03
 E2(B2PLYPD3) =    -0.4303619456D+00 E(B2PLYPD3) =    -0.34601555379862D+03
 E2(B2PLYPD3) =    -0.4304380818D+00 E(B2PLYPD3) =    -0.34601557559163D+03
 E2(B2PLYPD3) =    -0.4304434876D+00 E(B2PLYPD3) =    -0.34601557574983D+03
 E2(B2PLYPD3) =    -0.4304436925D+00 E(B2PLYPD3) =    -0.34601557581565D+03
 E2(B2PLYPD3) =    -0.4304419438D+00 E(B2PLYPD3) =    -0.34601557574988D+03
 E2(B2PLYPD3) =    -0.4305393414D+00 E(B2PLYPD3) =    -0.34601595264973D+03
 E2(B2PLYPD3) =    -0.4306163858D+00 E(B2PLYPD3) =    -0.34601597233400D+03
 E2(B2PLYPD3) =    -0.4306119385D+00 E(B2PLYPD3) =    -0.34601597244964D+03
 SCF Done:  E(UB2PLYPD3) =  -345.585620377     A.U. after   17 cycles
 E2(B2PLYPD3) =    -0.4307533692D+00 E(B2PLYPD3) =    -0.34601637374668D+03
 SCF Done:  E(UB2PLYPD3) =  -345.585593978     A.U. after   15 cycles
 E2(B2PLYPD3) =    -0.4307954051D+00 E(B2PLYPD3) =    -0.34601638938292D+03
 SCF Done:  E(UB2PLYPD3) =  -345.585608979     A.U. after   12 cycles
 E2(B2PLYPD3) =    -0.4307811767D+00 E(B2PLYPD3) =    -0.34601639015595D+03
 SCF Done:  E(UB2PLYPD3) =  -345.585607799     A.U. after   12 cycles
 E2(B2PLYPD3) =    -0.4307823435D+00 E(B2PLYPD3) =    -0.34601639014259D+03
 SCF Done:  E(UB2PLYPD3) =  -345.585608039     A.U. after   10 cycles
 E2(B2PLYPD3) =    -0.4307820212D+00 E(B2PLYPD3) =    -0.34601639006020D+03
    -- Stationary point found.
 SCF Done:  E(UB2PLYPD3) =  -345.585725480     A.U. after   16 cycles
 E2(B2PLYPD3) =    -0.4309473190D+00 E(B2PLYPD3) =    -0.34601667279874D+03
 SCF Done:  E(UB2PLYPD3) =  -345.585845473     A.U. after   15 cycles
 E2(B2PLYPD3) =    -0.4308501816D+00 E(B2PLYPD3) =    -0.34601669565414D+03
 SCF Done:  E(UB2PLYPD3) =  -345.585788151     A.U. after   14 cycles
 E2(B2PLYPD3) =    -0.4309115423D+00 E(B2PLYPD3) =    -0.34601669969360D+03
 SCF Done:  E(UB2PLYPD3) =  -345.585797754     A.U. after   14 cycles
 E2(B2PLYPD3) =    -0.4309016807D+00 E(B2PLYPD3) =    -0.34601669943443D+03
 SCF Done:  E(UB2PLYPD3) =  -345.585795591     A.U. after   12 cycles
 E2(B2PLYPD3) =    -0.4309042631D+00 E(B2PLYPD3) =    -0.34601669985451D+03
 Optimization completed.
    -- Stationary point found.

                          Input orientation:
 ---------------------------------------------------------------------
 Center     Atomic      Atomic             Coordinates (Angstroms)
 Number     Number       Type             X           Y           Z
 ---------------------------------------------------------------------
      1          6           0        0.884666    0.738383    0.317415
      2          6           0        0.942115    0.674931    1.630599
      3          6           0       -2.339022   -0.860733    0.612774
      4          1           0       -1.374383   -1.366357    0.547900
      5          1           0       -2.891533   -1.220743    1.478111
      6          1           0       -2.910238   -1.028314   -0.298284
      7          8           0       -2.157542    0.531470    0.836874
      8          8           0       -1.534642    1.071775   -0.301579
      9          1           0       -0.409165    0.950506   -0.091773
     10          1           0        1.893261    0.592938    2.147720
     11          1           0        0.043389    0.725234    2.231718
     12          6           0        1.822529    0.638808   -0.767109
     13          6           0        2.528215   -0.465785   -1.034014
     14          1           0        1.914755    1.501928   -1.416145
     15          1           0        3.219656   -0.498960   -1.862967
     16          1           0        2.427069   -1.352922   -0.425793
 ---------------------------------------------------------------------

 Alpha  occ. eigenvalues --  -19.78765 -19.78409 -10.65910 -10.65274 -10.64309
 Alpha  occ. eigenvalues --  -10.63651 -10.62488  -1.27574  -1.02097  -0.94772
 Alpha  occ. eigenvalues --   -0.86660  -0.77724  -0.73151  -0.64128  -0.60879
 Alpha  occ. eigenvalues --   -0.55967  -0.55551  -0.54519  -0.52703  -0.51810
 Alpha  occ. eigenvalues --   -0.48783  -0.45287  -0.44039  -0.39467  -0.36726
 Alpha  occ. eigenvalues --   -0.35550  -0.32536  -0.28821
 Alpha virt. eigenvalues --    0.03039   0.07037   0.09060   0.10184   0.11248
 Alpha virt. eigenvalues --    0.12280   0.13468   0.14740   0.15103   0.17211
 Alpha virt. eigenvalues --    0.17974   0.19239   0.24657   0.25283   0.26787

  Beta  occ. eigenvalues --  -19.78586 -19.76903 -10.65919 -10.64625 -10.63891
  Beta  occ. eigenvalues --  -10.63112 -10.62732  -1.25768  -0.99378  -0.93455
  Beta  occ. eigenvalues --   -0.85621  -0.77316  -0.72028  -0.61738  -0.58781
  Beta  occ. eigenvalues --   -0.55126  -0.54445  -0.54208  -0.52108  -0.50537
  Beta  occ. eigenvalues --   -0.45993  -0.44341  -0.43193  -0.37178  -0.35422
  Beta  occ. eigenvalues --   -0.33538  -0.30634
  Beta virt. eigenvalues --   -0.06139   0.04309   0.07437   0.09707   0.10433
  Beta virt. eigenvalues --    0.11362   0.12346   0.14022   0.14941   0.15286
  Beta virt. eigenvalues --    0.17404   0.18076   0.19730   0.24972   0.25386

 Mulliken charges and spin densities:
               1          2
     1  C   -0.053513   0.643730
     2  C   -0.306348  -0.160185
     3  C   -0.065026  -0.003836
     4  H    0.075169   0.000656
     5  H    0.095084  -0.000924
     6  H    0.096424   0.002476
     7  O   -0.187422   0.033286
     8  O   -0.221150   0.388381
     9  H    0.224993  -0.083657
    10  H    0.138039   0.054163
    11  H    0.157036   0.019642
    12  C   -0.101946  -0.207981
    13  C   -0.273305   0.329981
    14  H    0.150714   0.008902
    15  H    0.136439  -0.011612
    16  H    0.134811  -0.013023
 Sum of Mulliken charges =  -0.00000   1.00000

 Dipole moment (field-independent basis, Debye):
    X=              1.9961    Y=             -2.1073    Z=              0.0891  Tot=              2.9039
 Quadrupole moment (field-independent basis, Debye-Ang):
   XX=            -41.9404   YY=            -44.2513   ZZ=            -41.2073
   XY=              4.8544   XZ=             -2.1469   YZ=             -1.5172

 1\1\GINC-N138\Scan\UB2PLYPD3-FC\CC-pVTZ\C5H9O2(2)\ROOT\14-Jun-2019\0\\
 # opt=(calcfc,ts,noeigentest,maxcyc=500,modredundant) uB2PLYPD3/cc-pvt
 z scf=maxcyc=500 nosymm\\Title Card Required\\0,2\C,0.8846657378,0.738
 3827345,0.3174151833\C,0.9421146132,0.6749314424,1.6305992965\C,-2.339
 0216861,-0.8607332481,0.6127738668\H,-1.3743832648,-1.3663566213,0.547
 9000151\H,-2.8915330172,-1.2207430973,1.4781113971\H,-2.9102376609,-1.
 0283140521,-0.2982836288\O,-2.1575416002,0.5314701597,0.8368740963\O,-
 1.5346423669,1.0717750559,-0.3015787707\H,-0.4091645711,0.950506219,-0

 Normal termination of Gaussian 16 at Fri Jun 14 19:53:39 2019.
