 Gaussian 16, Revision B.01,
 Gaussian 16:  ES64L-G16RevB.01 20-Dec-2017

 ----------------------------------------------------------------------
 # opt=(calcfc,ts,noeigentest,maxcyc=500,modredundant) uB2PLYPD3/cc-pvt
 z scf=maxcyc=500 nosymm
 ----------------------------------------------------------------------

 -------------------
 Title Card Required
 -------------------
 Symbolic Z-matrix:
 Charge =  0 Multiplicity = 2

 SCF Done:  E(UB2PLYPD3) =  -346.815239844     A.U. after   22 cycles
 E2(B2PLYPD3) =    -0.4404463515D+00 E(B2PLYPD3) =    -0.34725568619546D+03
 E2(B2PLYPD3) =    -0.4404463515D+00 E(B2PLYPD3) =    -0.34725568619546D+03

  Exact polarizability: 144.955  -4.948  73.912   5.104  -2.063  63.023
 Approx polarizability: 115.763  -7.451  80.963   8.104  -1.627  76.127

 Optimization completed.
    -- Stationary point found.
 SCF Done:  E(UB2PLYPD3) =  -346.815086719     A.U. after   17 cycles
 E2(B2PLYPD3) =    -0.4405515180D+00 E(B2PLYPD3) =    -0.34725563823656D+03
 SCF Done:  E(UB2PLYPD3) =  -346.815193894     A.U. after   14 cycles
 E2(B2PLYPD3) =    -0.4404650069D+00 E(B2PLYPD3) =    -0.34725565890136D+03
 SCF Done:  E(UB2PLYPD3) =  -346.815180588     A.U. after   10 cycles
 E2(B2PLYPD3) =    -0.4404788633D+00 E(B2PLYPD3) =    -0.34725565945164D+03
 SCF Done:  E(UB2PLYPD3) =  -346.815178902     A.U. after   10 cycles
 E2(B2PLYPD3) =    -0.4404806820D+00 E(B2PLYPD3) =    -0.34725565958423D+03
 SCF Done:  E(UB2PLYPD3) =  -346.815181132     A.U. after    9 cycles
 E2(B2PLYPD3) =    -0.4404784722D+00 E(B2PLYPD3) =    -0.34725565960389D+03
 Optimization completed.
 SCF Done:  E(UB2PLYPD3) =  -346.814983374     A.U. after   16 cycles
 E2(B2PLYPD3) =    -0.4405805761D+00 E(B2PLYPD3) =    -0.34725556394981D+03
 SCF Done:  E(UB2PLYPD3) =  -346.815116738     A.U. after   13 cycles
 E2(B2PLYPD3) =    -0.4404755726D+00 E(B2PLYPD3) =    -0.34725559231082D+03
 SCF Done:  E(UB2PLYPD3) =  -346.815080701     A.U. after   13 cycles
 E2(B2PLYPD3) =    -0.4405112786D+00 E(B2PLYPD3) =    -0.34725559198003D+03
 SCF Done:  E(UB2PLYPD3) =  -346.815089592     A.U. after   12 cycles
 E2(B2PLYPD3) =    -0.4405055824D+00 E(B2PLYPD3) =    -0.34725559517487D+03
 E2(B2PLYPD3) =    -0.4405002541D+00 E(B2PLYPD3) =    -0.34725559542706D+03
 E2(B2PLYPD3) =    -0.4406047354D+00 E(B2PLYPD3) =    -0.34725545239941D+03
 E2(B2PLYPD3) =    -0.4404883611D+00 E(B2PLYPD3) =    -0.34725549164786D+03
 E2(B2PLYPD3) =    -0.4408403413D+00 E(B2PLYPD3) =    -0.34725498269095D+03
 E2(B2PLYPD3) =    -0.4405293279D+00 E(B2PLYPD3) =    -0.34725541892496D+03
 E2(B2PLYPD3) =    -0.4407168318D+00 E(B2PLYPD3) =    -0.34725514606348D+03
 E2(B2PLYPD3) =    -0.4404896264D+00 E(B2PLYPD3) =    -0.34725545988309D+03
 E2(B2PLYPD3) =    -0.4406427497D+00 E(B2PLYPD3) =    -0.34725535986423D+03
 E2(B2PLYPD3) =    -0.4405248608D+00 E(B2PLYPD3) =    -0.34725549724234D+03
 E2(B2PLYPD3) =    -0.4401756994D+00 E(B2PLYPD3) =    -0.34725537416736D+03
 E2(B2PLYPD3) =    -0.4401761053D+00 E(B2PLYPD3) =    -0.34725537430834D+03
 E2(B2PLYPD3) =    -0.4402800828D+00 E(B2PLYPD3) =    -0.34725553154750D+03
 E2(B2PLYPD3) =    -0.4402781119D+00 E(B2PLYPD3) =    -0.34725553965011D+03
 E2(B2PLYPD3) =    -0.4402854043D+00 E(B2PLYPD3) =    -0.34725554377803D+03
 E2(B2PLYPD3) =    -0.4402719916D+00 E(B2PLYPD3) =    -0.34725554170657D+03
 E2(B2PLYPD3) =    -0.4402833980D+00 E(B2PLYPD3) =    -0.34725554392775D+03
 E2(B2PLYPD3) =    -0.4404013609D+00 E(B2PLYPD3) =    -0.34725563461554D+03
 E2(B2PLYPD3) =    -0.4403665052D+00 E(B2PLYPD3) =    -0.34725565161000D+03
 E2(B2PLYPD3) =    -0.4405421283D+00 E(B2PLYPD3) =    -0.34725550799125D+03
 SCF Done:  E(UB2PLYPD3) =  -346.815260127     A.U. after   14 cycles
 E2(B2PLYPD3) =    -0.4403906150D+00 E(B2PLYPD3) =    -0.34725565074197D+03
 SCF Done:  E(UB2PLYPD3) =  -346.815269008     A.U. after   12 cycles
 E2(B2PLYPD3) =    -0.4403835724D+00 E(B2PLYPD3) =    -0.34725565257999D+03
 SCF Done:  E(UB2PLYPD3) =  -346.815271997     A.U. after   10 cycles
 E2(B2PLYPD3) =    -0.4403807832D+00 E(B2PLYPD3) =    -0.34725565278060D+03
    -- Stationary point found.
 SCF Done:  E(UB2PLYPD3) =  -346.815170723     A.U. after   16 cycles
 E2(B2PLYPD3) =    -0.4404960524D+00 E(B2PLYPD3) =    -0.34725566677491D+03
 SCF Done:  E(UB2PLYPD3) =  -346.815252754     A.U. after   13 cycles
 E2(B2PLYPD3) =    -0.4404326285D+00 E(B2PLYPD3) =    -0.34725568538240D+03
 SCF Done:  E(UB2PLYPD3) =  -346.815241265     A.U. after   11 cycles
 E2(B2PLYPD3) =    -0.4404450005D+00 E(B2PLYPD3) =    -0.34725568626509D+03
 SCF Done:  E(UB2PLYPD3) =  -346.814711861     A.U. after   18 cycles
 E2(B2PLYPD3) =    -0.4405513518D+00 E(B2PLYPD3) =    -0.34725526321226D+03
 SCF Done:  E(UB2PLYPD3) =  -346.815149344     A.U. after   17 cycles
 E2(B2PLYPD3) =    -0.4405000843D+00 E(B2PLYPD3) =    -0.34725564942787D+03
 SCF Done:  E(UB2PLYPD3) =  -346.815241886     A.U. after   14 cycles
 E2(B2PLYPD3) =    -0.4404440466D+00 E(B2PLYPD3) =    -0.34725568593259D+03
 SCF Done:  E(UB2PLYPD3) =  -346.815239599     A.U. after   10 cycles
 E2(B2PLYPD3) =    -0.4404465915D+00 E(B2PLYPD3) =    -0.34725568619021D+03
 Optimization completed.
    -- Stationary point found.

                          Input orientation:
 ---------------------------------------------------------------------
 Center     Atomic      Atomic             Coordinates (Angstroms)
 Number     Number       Type             X           Y           Z
 ---------------------------------------------------------------------
      1          6           0        0.954894    0.303995    0.324936
      2          1           0        1.144390   -0.742373    0.559686
      3          6           0       -2.476871   -1.191769    0.653873
      4          1           0       -1.568724   -1.703257    0.976140
      5          1           0       -3.205620   -1.182287    1.461463
      6          1           0       -2.888369   -1.687266   -0.223307
      7          8           0       -2.207990    0.176272    0.370724
      8          8           0       -1.349551    0.231783   -0.727984
      9          1           0       -0.198856    0.245863   -0.257445
     10          6           0        1.840567    0.833214   -0.706037
     11          6           0        2.649032    0.090941   -1.470367
     12          1           0        1.801791    1.904981   -0.868800
     13          1           0        3.265828    0.535479   -2.236767
     14          1           0        2.712330   -0.981332   -1.343064
     15          6           0        0.669027    1.170883    1.527634
     16          1           0       -0.188860    0.800897    2.086110
     17          1           0        1.528087    1.194085    2.202339
     18          1           0        0.452041    2.194019    1.223839
 ---------------------------------------------------------------------

 Alpha  occ. eigenvalues --  -19.78988 -19.78553 -10.66156 -10.63737 -10.62612
 Alpha  occ. eigenvalues --  -10.62080 -10.61078  -1.27890  -1.01496  -0.93606
 Alpha  occ. eigenvalues --   -0.85511  -0.77812  -0.73687  -0.65523  -0.60744
 Alpha  occ. eigenvalues --   -0.56057  -0.54776  -0.54185  -0.52897  -0.50944
 Alpha  occ. eigenvalues --   -0.47394  -0.45316  -0.44563  -0.43971  -0.41590
 Alpha  occ. eigenvalues --   -0.39081  -0.36380  -0.34106  -0.27759
 Alpha virt. eigenvalues --    0.06336   0.07803   0.09800   0.10333   0.11350
 Alpha virt. eigenvalues --    0.13462   0.14190   0.15292   0.15918   0.16750
 Alpha virt. eigenvalues --    0.17999   0.18554   0.21382   0.23624   0.25376

  Beta  occ. eigenvalues --  -19.78735 -19.76717 -10.66170 -10.62997 -10.62759
  Beta  occ. eigenvalues --  -10.61538 -10.61128  -1.25724  -0.98201  -0.92559
  Beta  occ. eigenvalues --   -0.84553  -0.77300  -0.72270  -0.64781  -0.57638
  Beta  occ. eigenvalues --   -0.54679  -0.54369  -0.53649  -0.52476  -0.49355
  Beta  occ. eigenvalues --   -0.45230  -0.44613  -0.43547  -0.42819  -0.41327
  Beta  occ. eigenvalues --   -0.36422  -0.34946  -0.29734
  Beta virt. eigenvalues --   -0.05216   0.07522   0.08016   0.09799   0.10556
  Beta virt. eigenvalues --    0.11444   0.14128   0.14297   0.15426   0.16001
  Beta virt. eigenvalues --    0.16865   0.18102   0.18826   0.21781   0.23994

 Mulliken charges and spin densities:
               1          2
     1  C   -0.149411   0.453753
     2  H    0.103014  -0.008279
     3  C   -0.063563  -0.006040
     4  H    0.070438   0.002305
     5  H    0.097297  -0.001201
     6  H    0.097006   0.003090
     7  O   -0.180734   0.047430
     8  O   -0.219728   0.482256
     9  H    0.209289  -0.078081
    10  C   -0.086064  -0.225702
    11  C   -0.294314   0.340082
    12  H    0.134412   0.007805
    13  H    0.130611  -0.014995
    14  H    0.122408  -0.013391
    15  C   -0.289150  -0.023633
    16  H    0.112241   0.003703
    17  H    0.103136   0.029009
    18  H    0.103111   0.001890
 Sum of Mulliken charges =  -0.00000   1.00000

 Dipole moment (field-independent basis, Debye):
    X=              1.2332    Y=             -1.3780    Z=              1.2235  Tot=              2.2173
 Quadrupole moment (field-independent basis, Debye-Ang):
   XX=            -44.0998   YY=            -41.8665   ZZ=            -44.5361
   XY=              4.4028   XZ=             -3.6695   YZ=             -0.9953

 Normal termination of Gaussian 16 at Tue Jun 18 11:18:56 2019.
