 Gaussian 16, Revision B.01,
 Gaussian 16:  ES64L-G16RevB.01 20-Dec-2017

 ----------------------------------------------------------------------
 # opt=(calcfc,ts,noeigentest,maxcyc=500) freq=noraman uB2PLYPD3/cc-pvt
 z
 ----------------------------------------------------------------------

 -------------------
 Title Card Required
 -------------------
 Symbolic Z-matrix:
 Charge =  0 Multiplicity = 2

 SCF Done:  E(UB2PLYPD3) =  -345.587667270     A.U. after   27 cycles
 E2(B2PLYPD3) =    -0.4300055130D+00 E(B2PLYPD3) =    -0.34601767278320D+03
 E2(B2PLYPD3) =    -0.4300055130D+00 E(B2PLYPD3) =    -0.34601767278320D+03
 SCF Done:  E(UB2PLYPD3) =  -345.587857442     A.U. after   19 cycles
 E2(B2PLYPD3) =    -0.4303217415D+00 E(B2PLYPD3) =    -0.34601817918385D+03
 SCF Done:  E(UB2PLYPD3) =  -345.587848503     A.U. after   12 cycles
 E2(B2PLYPD3) =    -0.4303380010D+00 E(B2PLYPD3) =    -0.34601818650359D+03
 SCF Done:  E(UB2PLYPD3) =  -345.587852655     A.U. after   10 cycles
 E2(B2PLYPD3) =    -0.4303339388D+00 E(B2PLYPD3) =    -0.34601818659389D+03
 SCF Done:  E(UB2PLYPD3) =  -345.587856729     A.U. after    8 cycles
 E2(B2PLYPD3) =    -0.4303300337D+00 E(B2PLYPD3) =    -0.34601818676303D+03
 Optimization completed.
    -- Stationary point found.
 Normal termination of Gaussian 16 at Wed Jun  5 22:23:05 2019.

 ----------------------------------------------------------------------
 #N Geom=AllCheck Guess=TCheck SCRF=Check GenChk UB2PLYPD3(FC)/CC-pVTZ
 Freq
 ----------------------------------------------------------------------

 Structure from the checkpoint file:  "/localscratch/341085/Gau-7727.chk"
 -------------------
 Title Card Required
 -------------------
 Charge =  0 Multiplicity = 2

                         Standard orientation:
 ---------------------------------------------------------------------
 Center     Atomic      Atomic             Coordinates (Angstroms)
 Number     Number       Type             X           Y           Z
 ---------------------------------------------------------------------
      1          6           0        0.976933    0.676814   -0.100899
      2          6           0        0.575883    1.929549   -0.052830
      3          6           0       -2.361893   -0.316852    0.886623
      4          1           0       -1.543525   -0.056671    1.559688
      5          1           0       -3.242085    0.277215    1.124102
      6          1           0       -2.590067   -1.378074    0.968911
      7          8           0       -2.035686    0.021679   -0.453882
      8          8           0       -0.946827   -0.793039   -0.845005
      9          1           0       -0.062884   -0.186022   -0.556338
     10          1           0        1.244209    2.721860    0.275508
     11          1           0       -0.430343    2.209352   -0.335765
     12          6           0        2.209776   -0.005597    0.197937
     13          6           0        2.362994   -1.330443    0.166521
     14          1           0        3.050363    0.631816    0.463261
     15          1           0        3.311246   -1.788089    0.402777
     16          1           0        1.541035   -1.981338   -0.095160
 ---------------------------------------------------------------------

 SCF Done:  E(UB2PLYPD3) =  -345.587856729     A.U. after    1 cycles
 E2(B2PLYPD3) =    -0.4303300451D+00 E(B2PLYPD3) =    -0.34601818677445D+03
 E2(B2PLYPD3) =    -0.4303300451D+00 E(B2PLYPD3) =    -0.34601818677445D+03

 The electronic state is 2-A.
 Alpha  occ. eigenvalues --  -19.78667 -19.78479 -10.65922 -10.65894 -10.64355
 Alpha  occ. eigenvalues --  -10.63045 -10.62774  -1.27362  -1.02631  -0.94871
 Alpha  occ. eigenvalues --   -0.86980  -0.77758  -0.72244  -0.65688  -0.59918
 Alpha  occ. eigenvalues --   -0.56391  -0.55765  -0.54496  -0.53754  -0.49593
 Alpha  occ. eigenvalues --   -0.48616  -0.45718  -0.43976  -0.40383  -0.37336
 Alpha  occ. eigenvalues --   -0.36714  -0.30607  -0.29290
 Alpha virt. eigenvalues --    0.00831   0.08938   0.09778   0.10102   0.11278
 Alpha virt. eigenvalues --    0.13193   0.13750   0.14734   0.16124   0.16340
 Alpha virt. eigenvalues --    0.17452   0.20133   0.23712   0.25666   0.29086

  Beta  occ. eigenvalues --  -19.78549 -19.77130 -10.65928 -10.64451 -10.64292
  Beta  occ. eigenvalues --  -10.63051 -10.62871  -1.25751  -1.00202  -0.93167
  Beta  occ. eigenvalues --   -0.86256  -0.77402  -0.71468  -0.62344  -0.57835
  Beta  occ. eigenvalues --   -0.55671  -0.54917  -0.54148  -0.52402  -0.48409
  Beta  occ. eigenvalues --   -0.46486  -0.44679  -0.43268  -0.39529  -0.35835
  Beta  occ. eigenvalues --   -0.34059  -0.29341
  Beta virt. eigenvalues --   -0.05491   0.01029   0.09145   0.09928   0.10353
  Beta virt. eigenvalues --    0.12130   0.13829   0.13886   0.14879   0.16317
  Beta virt. eigenvalues --    0.16494   0.17608   0.20666   0.23991   0.26123

 Mulliken charges and spin densities:
               1          2
     1  C   -0.002441   0.753394
     2  C   -0.327033  -0.188968
     3  C   -0.064984  -0.002560
     4  H    0.075521  -0.000197
     5  H    0.094407  -0.000695
     6  H    0.093315   0.001881
     7  O   -0.190662   0.020995
     8  O   -0.226949   0.340512
     9  H    0.224425  -0.074856
    10  H    0.130634   0.063617
    11  H    0.158249   0.024024
    12  C   -0.088792  -0.066877
    13  C   -0.286627   0.094448
    14  H    0.138228   0.042831
    15  H    0.132288  -0.006340
    16  H    0.140421  -0.001207
 Sum of Mulliken charges =  -0.00000   1.00000

 Dipole moment (field-independent basis, Debye):
    X=              1.3511    Y=              0.7390    Z=              2.2807  Tot=              2.7519
 Quadrupole moment (field-independent basis, Debye-Ang):
   XX=            -38.3575   YY=            -40.0374   ZZ=            -46.7784
   XY=             -0.4480   XZ=             -3.0257   YZ=             -0.5328

  Exact polarizability: 104.894  -3.714  97.446   2.335   1.463  49.312
 Approx polarizability:  92.599 -11.967 115.709   3.424   3.536  60.001

 ******    1 imaginary frequencies (negative Signs) ******

                      1                      2                      3
                      A                      A                      A
 Frequencies --  -1535.1443                34.6468                78.5110
 Red. masses --      1.1698                 3.7496                 3.3082
 Frc consts  --      1.6242                 0.0027                 0.0120
 IR Inten    --   1485.5346                 1.4236                 1.1703

                      4                      5                      6
                      A                      A                      A
 Frequencies --     87.6990               107.8011               166.2818
 Red. masses --      3.1167                 2.1354                 2.4526
 Frc consts  --      0.0141                 0.0146                 0.0400
 IR Inten    --      2.1557                 0.2064                 0.8248

                      7                      8                      9
                      A                      A                      A
 Frequencies --    228.7833               253.2233               322.1798
 Red. masses --      1.4519                 2.1923                 2.8044
 Frc consts  --      0.0448                 0.0828                 0.1715
 IR Inten    --      2.1527                 2.6161                 2.2792

                     10                     11                     12
                      A                      A                      A
 Frequencies --    453.9712               463.6005               484.3525
 Red. masses --      3.2258                 2.1261                 1.3164
 Frc consts  --      0.3917                 0.2692                 0.1819
 IR Inten    --      6.3577                 0.6425                 4.9959

                     13                     14                     15
                      A                      A                      A
 Frequencies --    636.6976               725.9023               860.3783
 Red. masses --      4.0337                 1.5709                 1.1902
 Frc consts  --      0.9634                 0.4877                 0.5191
 IR Inten    --     16.6866                 9.4586                20.5928

                     16                     17                     18
                      A                      A                      A
 Frequencies --    891.9562               914.8837               925.8580
 Red. masses --      1.8253                 4.0129                 1.3438
 Frc consts  --      0.8556                 1.9790                 0.6787
 IR Inten    --      9.2877                12.9492                31.6620

                     19                     20                     21
                      A                      A                      A
 Frequencies --    972.0271              1011.7445              1014.6561
 Red. masses --      1.3429                 1.1160                 1.3283
 Frc consts  --      0.7476                 0.6730                 0.8057
 IR Inten    --     40.1764                17.1529                 1.9252

                     22                     23                     24
                      A                      A                      A
 Frequencies --   1057.8668              1179.2808              1214.3469
 Red. masses --      5.8119                 1.2710                 1.6443
 Frc consts  --      3.8321                 1.0414                 1.4287
 IR Inten    --     23.2152                 1.7605                 4.2138

                     25                     26                     27
                      A                      A                      A
 Frequencies --   1243.3648              1315.8282              1413.1994
 Red. masses --      2.4308                 1.2740                 1.1526
 Frc consts  --      2.2141                 1.2996                 1.3563
 IR Inten    --      2.4689                 2.0845                11.9982

                     28                     29                     30
                      A                      A                      A
 Frequencies --   1458.3720              1460.9948              1481.2186
 Red. masses --      1.1465                 1.1767                 1.0557
 Frc consts  --      1.4366                 1.4798                 1.3647
 IR Inten    --      4.3561                 2.8839                 5.0603

                     31                     32                     33
                      A                      A                      A
 Frequencies --   1488.1616              1518.5237              1668.3608
 Red. masses --      1.0867                 1.0516                 4.1328
 Frc consts  --      1.4180                 1.4287                 6.7776
 IR Inten    --      6.8790                 8.8560                18.8005

                     34                     35                     36
                      A                      A                      A
 Frequencies --   1805.5577              3037.2104              3101.3507
 Red. masses --      7.4564                 1.0302                 1.0631
 Frc consts  --     14.3219                 5.5992                 6.0245
 IR Inten    --      9.1087                31.5218                 4.9744

                     37                     38                     39
                      A                      A                      A
 Frequencies --   3115.3927              3117.3855              3145.0688
 Red. masses --      1.1042                 1.0852                 1.1049
 Frc consts  --      6.3144                 6.2136                 6.4390
 IR Inten    --     42.3096                 9.2552                13.5653

                     40                     41                     42
                      A                      A                      A
 Frequencies --   3170.8437              3206.8232              3263.1336
 Red. masses --      1.0624                 1.1077                 1.1174
 Frc consts  --      6.2933                 6.7113                 7.0104
 IR Inten    --      2.0971                 1.1936                 4.6125

 - Thermochemistry -
 -------------------
 Temperature   298.150 Kelvin.  Pressure   1.00000 Atm.
 Atom     1 has atomic number  6 and mass  12.00000

 Molecular mass:   101.06025 amu.
 Principal axes and moments of inertia in atomic units:
                           1         2         3
     Eigenvalues --   482.459921297.856141563.07851
           X            0.99981  -0.00833  -0.01756
           Y            0.00805   0.99984  -0.01586
           Z            0.01769   0.01571   0.99972
 This molecule is an asymmetric top.
 Rotational symmetry number  1.
 Warning -- assumption of classical behavior for rotation
           may cause significant error
 Rotational temperatures (Kelvin)      0.17953     0.06674     0.05541
 Rotational constants (GHZ):           3.74071     1.39056     1.15461
    1 imaginary frequencies ignored.
 Zero-point vibrational energy     323574.5 (Joules/Mol)
                                   77.33617 (Kcal/Mol)
 Warning -- explicit consideration of  11 degrees of freedom as
           vibrations may cause significant error
 Vibrational temperatures:     49.85   112.96   126.18   155.10   239.24
          (Kelvin)            329.17   364.33   463.54   653.16   667.02
                              696.88   916.07  1044.41  1237.89  1283.33
                             1316.31  1332.10  1398.53  1455.67  1459.86
                             1522.03  1696.72  1747.17  1788.92  1893.18
                             2033.28  2098.27  2102.05  2131.14  2141.13
                             2184.82  2400.40  2597.79  4369.87  4462.15
                             4482.36  4485.22  4525.05  4562.14  4613.90
                             4694.92

 Zero-point correction=                           0.123243 (Hartree/Particle)
 Thermal correction to Energy=                    0.132653
 Thermal correction to Enthalpy=                  0.133597
 Thermal correction to Gibbs Free Energy=         0.087308
 Sum of electronic and zero-point Energies=           -345.894944
 Sum of electronic and thermal Energies=              -345.885534
 Sum of electronic and thermal Enthalpies=            -345.884590
 Sum of electronic and thermal Free Energies=         -345.930879

                     E (Thermal)             CV                S
                      KCal/Mol        Cal/Mol-Kelvin    Cal/Mol-Kelvin
 Total                   83.241             31.349             97.423
 Electronic               0.000              0.000              1.377
 Translational            0.889              2.981             39.749
 Rotational               0.889              2.981             28.372
 Vibrational             81.463             25.387             27.924
 Vibration     1          0.594              1.983              5.544
 Vibration     2          0.600              1.964              3.928
 Vibration     3          0.601              1.958              3.711
 Vibration     4          0.606              1.943              3.308
 Vibration     5          0.624              1.884              2.477
 Vibration     6          0.651              1.797              1.888
 Vibration     7          0.664              1.757              1.708
 Vibration     8          0.707              1.631              1.299
 Vibration     9          0.812              1.352              0.784
 Vibration    10          0.821              1.331              0.756
 Vibration    11          0.840              1.285              0.698

 Optimization completed.
    -- Stationary point found.
 Normal termination of Gaussian 16 at Wed Jun  5 23:49:38 2019.
