 Gaussian 16, Revision B.01,
 Gaussian 16:  ES64L-G16RevB.01 20-Dec-2017

 ----------------------------------------------------------------------
 # opt=(calcfc,ts,noeigentest,maxcyc=500) freq=noraman uB2PLYPD3/cc-pvt
 z
 ----------------------------------------------------------------------

 -------------------
 Title Card Required
 -------------------
 Symbolic Z-matrix:
 Charge =  0 Multiplicity = 2

 SCF Done:  E(UB2PLYPD3) =  -345.576471887     A.U. after   21 cycles
 E2(B2PLYPD3) =    -0.4349140809D+00 E(B2PLYPD3) =    -0.34601138596748D+03
 E2(B2PLYPD3) =    -0.4349140809D+00 E(B2PLYPD3) =    -0.34601138596748D+03
 SCF Done:  E(UB2PLYPD3) =  -345.576500430     A.U. after   13 cycles
 E2(B2PLYPD3) =    -0.4349096864D+00 E(B2PLYPD3) =    -0.34601141011602D+03
 SCF Done:  E(UB2PLYPD3) =  -345.576498948     A.U. after    8 cycles
 E2(B2PLYPD3) =    -0.4349111976D+00 E(B2PLYPD3) =    -0.34601141014546D+03
 Optimization completed.
    -- Stationary point found.
 Normal termination of Gaussian 16 at Mon Jun 24 21:43:17 2019.

 ----------------------------------------------------------------------
 #N Geom=AllCheck Guess=TCheck SCRF=Check GenChk UB2PLYPD3(FC)/CC-pVTZ
 Freq
 ----------------------------------------------------------------------

 Structure from the checkpoint file:  "/localscratch/353442/Gau-15072.chk"
 -------------------
 Title Card Required
 -------------------
 Charge =  0 Multiplicity = 2

                         Standard orientation:
 ---------------------------------------------------------------------
 Center     Atomic      Atomic             Coordinates (Angstroms)
 Number     Number       Type             X           Y           Z
 ---------------------------------------------------------------------
      1          6           0        1.345344   -0.422589   -0.451519
      2          1           0        1.743078   -0.675957   -1.431861
      3          6           0       -2.090430    0.217303    0.872960
      4          1           0       -1.184010    0.310278    1.469681
      5          1           0       -2.681265    1.126775    0.953578
      6          1           0       -2.671103   -0.644040    1.197492
      7          8           0       -1.769240    0.102425   -0.510695
      8          8           0       -1.082351   -1.093940   -0.700531
      9          1           0        0.077858   -0.786688   -0.612286
     10          6           0        1.233613    0.973782   -0.231308
     11          6           0        1.067904    2.155920   -0.028516
     12          1           0        0.944054    3.195849    0.135379
     13          6           0        1.870456   -1.276726    0.682802
     14          1           0        2.935627   -1.097047    0.840227
     15          1           0        1.352199   -1.050248    1.611938
     16          1           0        1.734970   -2.332943    0.459153
 ---------------------------------------------------------------------

 SCF Done:  E(UB2PLYPD3) =  -345.576498948     A.U. after    1 cycles
 E2(B2PLYPD3) =    -0.4349112087D+00 E(B2PLYPD3) =    -0.34601141015652D+03
 E2(B2PLYPD3) =    -0.4349112087D+00 E(B2PLYPD3) =    -0.34601141015652D+03

 The electronic state is 2-A.
 Alpha  occ. eigenvalues --  -19.79137 -19.78847 -10.66128 -10.65927 -10.63085
 Alpha  occ. eigenvalues --  -10.62637 -10.62430  -1.28278  -1.01816  -0.93711
 Alpha  occ. eigenvalues --   -0.85810  -0.77768  -0.75836  -0.63048  -0.61043
 Alpha  occ. eigenvalues --   -0.56813  -0.55657  -0.54771  -0.51998  -0.49341
 Alpha  occ. eigenvalues --   -0.48058  -0.45279  -0.44270  -0.39827  -0.36632
 Alpha  occ. eigenvalues --   -0.35547  -0.33459  -0.28566
 Alpha virt. eigenvalues --    0.06876   0.08928   0.09718   0.10523   0.11267
 Alpha virt. eigenvalues --    0.12186   0.13481   0.15378   0.15398   0.15781
 Alpha virt. eigenvalues --    0.19188   0.20320   0.23426   0.24800   0.25899

  Beta  occ. eigenvalues --  -19.78845 -19.77163 -10.65943 -10.65082 -10.63447
  Beta  occ. eigenvalues --  -10.62486 -10.62103  -1.26158  -0.98760  -0.92367
  Beta  occ. eigenvalues --   -0.84909  -0.77272  -0.74455  -0.61897  -0.58133
  Beta  occ. eigenvalues --   -0.56093  -0.54430  -0.54360  -0.50369  -0.48593
  Beta  occ. eigenvalues --   -0.45664  -0.44978  -0.43414  -0.36381  -0.35317
  Beta  occ. eigenvalues --   -0.33217  -0.31364
  Beta virt. eigenvalues --   -0.06336   0.07051   0.08925   0.10362   0.11230
  Beta virt. eigenvalues --    0.11386   0.12302   0.13940   0.15487   0.15691
  Beta virt. eigenvalues --    0.16068   0.19789   0.20536   0.23923   0.25090

 Mulliken charges and spin densities:
               1          2
     1  C   -0.182412   0.492020
     2  H    0.140236  -0.012012
     3  C   -0.065390  -0.007811
     4  H    0.075654   0.004781
     5  H    0.097924  -0.000968
     6  H    0.094578   0.001658
     7  O   -0.170128   0.056421
     8  O   -0.221485   0.441866
     9  H    0.210886  -0.083095
    10  C   -0.009707  -0.210723
    11  C   -0.191356   0.320653
    12  H    0.169532  -0.010425
    13  C   -0.277924  -0.024943
    14  H    0.110484   0.026001
    15  H    0.108419   0.003940
    16  H    0.110688   0.002637
 Sum of Mulliken charges =   0.00000   1.00000

 Dipole moment (field-independent basis, Debye):
    X=              1.2213    Y=              0.5679    Z=              1.9313  Tot=              2.3546
 Quadrupole moment (field-independent basis, Debye-Ang):
   XX=            -42.1409   YY=            -39.2267   ZZ=            -43.9634
   XY=             -3.5468   XZ=             -4.4868   YZ=              0.6678

  Exact polarizability: 104.480   4.105  89.400  -1.902   3.469  55.775
 Approx polarizability:  91.495   0.517 107.389   0.737   8.667  65.151

 ******    1 imaginary frequencies (negative Signs) ******

                      1                      2                      3
                      A                      A                      A
 Frequencies --  -1939.0546                44.2627                72.1784
 Red. masses --      1.1251                 3.6298                 4.4425
 Frc consts  --      2.4925                 0.0042                 0.0136
 IR Inten    --   2459.9320                 2.3188                 0.0015

                      4                      5                      6
                      A                      A                      A
 Frequencies --    103.1367               164.6861               178.1634
 Red. masses --      2.7400                 2.4739                 1.4560
 Frc consts  --      0.0172                 0.0395                 0.0272
 IR Inten    --      2.9410                 4.9129                 0.8996

                      7                      8                      9
                      A                      A                      A
 Frequencies --    186.4585               208.7230               265.3401
 Red. masses --      1.1619                 2.7252                 2.8399
 Frc consts  --      0.0238                 0.0699                 0.1178
 IR Inten    --      0.6653                 1.0125                 0.8807

                     10                     11                     12
                      A                      A                      A
 Frequencies --    452.2251               474.7063               514.6494
 Red. masses --      3.7261                 4.7566                 3.5547
 Frc consts  --      0.4490                 0.6315                 0.5547
 IR Inten    --      1.8657                 4.0085                 9.0366

                     13                     14                     15
                      A                      A                      A
 Frequencies --    558.3517               624.8908               651.0058
 Red. masses --      3.4243                 1.2578                 1.2374
 Frc consts  --      0.6290                 0.2894                 0.3090
 IR Inten    --      5.8067                42.3601                43.8349

                     16                     17                     18
                      A                      A                      A
 Frequencies --    814.7297               878.4558               934.1051
 Red. masses --      1.1794                 2.5438                 4.4418
 Frc consts  --      0.4612                 1.1566                 2.2835
 IR Inten    --     11.6792                 1.2336                18.0744

                     19                     20                     21
                      A                      A                      A
 Frequencies --   1059.6167              1073.4524              1107.3160
 Red. masses --      8.0279                 1.9160                 1.6096
 Frc consts  --      5.3107                 1.3008                 1.1628
 IR Inten    --     48.4322                11.0218                 6.6446

                     22                     23                     24
                      A                      A                      A
 Frequencies --   1130.5084              1168.1450              1179.4749
 Red. masses --      1.9101                 1.2130                 1.2112
 Frc consts  --      1.4383                 0.9752                 0.9928
 IR Inten    --      8.1035                 5.6026                 8.4818

                     25                     26                     27
                      A                      A                      A
 Frequencies --   1215.4237              1350.5397              1416.4379
 Red. masses --      1.5631                 1.4285                 1.2081
 Frc consts  --      1.3605                 1.5352                 1.4281
 IR Inten    --      2.5439                 9.5585                 4.0491

                     28                     29                     30
                      A                      A                      A
 Frequencies --   1456.7538              1466.2812              1484.8503
 Red. masses --      1.1464                 1.1054                 1.0528
 Frc consts  --      1.4333                 1.4003                 1.3677
 IR Inten    --      5.0900                 2.6611                 7.4774

                     31                     32                     33
                      A                      A                      A
 Frequencies --   1500.0234              1504.7958              1511.1814
 Red. masses --      1.0457                 1.0511                 1.0484
 Frc consts  --      1.3863                 1.4023                 1.4106
 IR Inten    --      4.2979                 5.8550                 7.4712

                     34                     35                     36
                      A                      A                      A
 Frequencies --   2158.9992              3044.8050              3048.2401
 Red. masses --      6.1748                 1.0392                 1.0282
 Frc consts  --     16.9582                 5.6763                 5.6288
 IR Inten    --      3.7986                20.2051                37.4129

                     37                     38                     39
                      A                      A                      A
 Frequencies --   3108.8719              3114.7840              3128.8835
 Red. masses --      1.0874                 1.0918                 1.1071
 Frc consts  --      6.1925                 6.2411                 6.3857
 IR Inten    --      5.2573                 9.6925                30.3601

                     40                     41                     42
                      A                      A                      A
 Frequencies --   3143.4771              3151.8726              3487.8720
 Red. masses --      1.1021                 1.1050                 1.1521
 Frc consts  --      6.4163                 6.4678                 8.2579
 IR Inten    --     18.4743                12.0303                61.1540

 - Thermochemistry -
 -------------------
 Temperature   298.150 Kelvin.  Pressure   1.00000 Atm.
 Atom     1 has atomic number  6 and mass  12.00000

 Molecular mass:   101.06025 amu.
 Principal axes and moments of inertia in atomic units:
                           1         2         3
     Eigenvalues --   604.146531039.223521357.00162
           X            0.99729  -0.07072  -0.02014
           Y            0.07052   0.99745  -0.01058
           Z            0.02084   0.00914   0.99974
 This molecule is an asymmetric top.
 Rotational symmetry number  1.
 Warning -- assumption of classical behavior for rotation
           may cause significant error
 Rotational temperatures (Kelvin)      0.14337     0.08334     0.06383
 Rotational constants (GHZ):           2.98726     1.73662     1.32995
    1 imaginary frequencies ignored.
 Zero-point vibrational energy     323821.2 (Joules/Mol)
                                   77.39512 (Kcal/Mol)
 Warning -- explicit consideration of  12 degrees of freedom as
           vibrations may cause significant error
 Vibrational temperatures:     63.68   103.85   148.39   236.95   256.34
          (Kelvin)            268.27   300.31   381.77   650.65   683.00
                              740.47   803.34   899.08   936.65  1172.21
                             1263.90  1343.97  1524.55  1544.46  1593.18
                             1626.55  1680.70  1697.00  1748.72  1943.13
                             2037.94  2095.94  2109.65  2136.37  2158.20
                             2165.07  2174.25  3106.32  4380.80  4385.74
                             4472.97  4481.48  4501.77  4522.76  4534.84
                             5018.27

 Zero-point correction=                           0.123337 (Hartree/Particle)
 Thermal correction to Energy=                    0.132911
 Thermal correction to Enthalpy=                  0.133855
 Thermal correction to Gibbs Free Energy=         0.087716
 Sum of electronic and zero-point Energies=           -345.888073
 Sum of electronic and thermal Energies=              -345.878499
 Sum of electronic and thermal Enthalpies=            -345.877555
 Sum of electronic and thermal Free Energies=         -345.923694

                     E (Thermal)             CV                S
                      KCal/Mol        Cal/Mol-Kelvin    Cal/Mol-Kelvin
 Total                   83.403             32.043             97.109
 Electronic               0.000              0.000              1.377
 Translational            0.889              2.981             39.749
 Rotational               0.889              2.981             28.234
 Vibrational             81.626             26.082             27.748
 Vibration     1          0.595              1.980              5.059
 Vibration     2          0.598              1.967              4.093
 Vibration     3          0.605              1.947              3.394
 Vibration     4          0.623              1.886              2.495
 Vibration     5          0.629              1.869              2.348
 Vibration     6          0.632              1.858              2.263
 Vibration     7          0.642              1.827              2.055
 Vibration     8          0.671              1.737              1.626
 Vibration     9          0.811              1.356              0.789
 Vibration    10          0.831              1.306              0.724
 Vibration    11          0.870              1.218              0.622
 Vibration    12          0.914              1.121              0.527

 Optimization completed.
    -- Stationary point found.

 1\1\GINC-N142\Freq\UB2PLYPD3-FC\CC-pVTZ\C5H9O2(2)\ROOT\24-Jun-2019\0\\
 #N Geom=AllCheck Guess=TCheck SCRF=Check GenChk UB2PLYPD3(FC)/CC-pVTZ
 Freq\\Title Card Required\\0,2\C,-1.0284254031,0.4336552548,-1.0812411
 723\H,-1.5354584754,0.0751587895,-1.9744686616\C,2.0188035174,-0.65288
 70534,0.7901406958\H,1.3670835979,0.1581796202,1.1122451535\H,2.158836
 0011,-1.3603624211,1.6041388757\H,2.9777400607,-0.2594905086,0.4583385
 325\O,1.4053927795,-1.4030015711,-0.2548078782\O,1.2753591126,-0.57501
 60011,-1.3668667874\H,0.1715982376,-0.1073604172,-1.2606298571\C,-1.46

 Normal termination of Gaussian 16 at Mon Jun 24 23:10:23 2019.
