 Gaussian 16, Revision B.01,
 Gaussian 16:  ES64L-G16RevB.01 20-Dec-2017

 ----------------------------------------------------------------------
 # opt=(calcfc,ts,noeigentest,maxcyc=500) freq=noraman uB2PLYPD3/cc-pvt
 z
 ----------------------------------------------------------------------

 -------------------
 Title Card Required
 -------------------
 Symbolic Z-matrix:
 Charge =  0 Multiplicity = 2

 SCF Done:  E(UB2PLYPD3) =  -346.797741321     A.U. after   21 cycles
 E2(B2PLYPD3) =    -0.4386916018D+00 E(B2PLYPD3) =    -0.34723643292253D+03
 E2(B2PLYPD3) =    -0.4386916018D+00 E(B2PLYPD3) =    -0.34723643292253D+03
 SCF Done:  E(UB2PLYPD3) =  -346.797908941     A.U. after   16 cycles
 E2(B2PLYPD3) =    -0.4390558653D+00 E(B2PLYPD3) =    -0.34723696480625D+03
 SCF Done:  E(UB2PLYPD3) =  -346.797889983     A.U. after   12 cycles
 E2(B2PLYPD3) =    -0.4390812334D+00 E(B2PLYPD3) =    -0.34723697121651D+03
 SCF Done:  E(UB2PLYPD3) =  -346.797893454     A.U. after   10 cycles
 E2(B2PLYPD3) =    -0.4390779198D+00 E(B2PLYPD3) =    -0.34723697137374D+03
 SCF Done:  E(UB2PLYPD3) =  -346.797896323     A.U. after    8 cycles
 E2(B2PLYPD3) =    -0.4390750722D+00 E(B2PLYPD3) =    -0.34723697139534D+03
 Optimization completed.
    -- Stationary point found.
 Normal termination of Gaussian 16 at Thu Jun  6 02:18:54 2019.

 ----------------------------------------------------------------------
 #N Geom=AllCheck Guess=TCheck SCRF=Check GenChk UB2PLYPD3(FC)/CC-pVTZ
 Freq
 ----------------------------------------------------------------------

 Structure from the checkpoint file:  "/localscratch/341085/Gau-97910.chk"
 -------------------
 Title Card Required
 -------------------
 Charge =  0 Multiplicity = 2

                         Standard orientation:
 ---------------------------------------------------------------------
 Center     Atomic      Atomic             Coordinates (Angstroms)
 Number     Number       Type             X           Y           Z
 ---------------------------------------------------------------------
      1          6           0        0.282905   -1.311694    0.474059
      2          6           0        0.980963   -0.486073   -0.267565
      3          1           0        0.553251   -2.050399    1.214572
      4          1           0        0.448764    0.172087   -0.951149
      5          6           0       -2.262861    1.285671    0.371687
      6          1           0       -1.435690    1.250649    1.082166
      7          1           0       -2.261895    2.237910   -0.155296
      8          1           0       -3.207998    1.145558    0.893318
      9          8           0       -2.099549    0.301128   -0.639108
     10          8           0       -2.181711   -0.966419   -0.011600
     11          1           0       -1.133675   -1.194584    0.233503
     12          6           0        2.484152   -0.351575   -0.243333
     13          1           0        2.908244   -1.085621    0.440864
     14          1           0        2.865706   -0.583571   -1.240108
     15          6           0        2.919298    1.059632    0.153156
     16          1           0        2.579604    1.300736    1.159218
     17          1           0        4.004119    1.152285    0.128230
     18          1           0        2.502908    1.801513   -0.527683
 ---------------------------------------------------------------------

 SCF Done:  E(UB2PLYPD3) =  -346.797896323     A.U. after    1 cycles
 E2(B2PLYPD3) =    -0.4390750738D+00 E(B2PLYPD3) =    -0.34723697139696D+03
 E2(B2PLYPD3) =    -0.4390750738D+00 E(B2PLYPD3) =    -0.34723697139696D+03

 The electronic state is 2-A.
 Alpha  occ. eigenvalues --  -19.78357 -19.77944 -10.65741 -10.64409 -10.63249
 Alpha  occ. eigenvalues --  -10.63085 -10.61360  -1.26938  -1.02292  -0.93692
 Alpha  occ. eigenvalues --   -0.85811  -0.77533  -0.73707  -0.65675  -0.61706
 Alpha  occ. eigenvalues --   -0.55383  -0.54480  -0.54131  -0.53200  -0.50073
 Alpha  occ. eigenvalues --   -0.47979  -0.45910  -0.43828  -0.43538  -0.41724
 Alpha  occ. eigenvalues --   -0.37010  -0.36722  -0.32882  -0.30460
 Alpha virt. eigenvalues --    0.05419   0.07805   0.09505   0.10319   0.11885
 Alpha virt. eigenvalues --    0.12715   0.13763   0.14663   0.15312   0.16064
 Alpha virt. eigenvalues --    0.17579   0.17952   0.20356   0.23122   0.24565

  Beta  occ. eigenvalues --  -19.78249 -19.76651 -10.65746 -10.63502 -10.62906
  Beta  occ. eigenvalues --  -10.62789 -10.61374  -1.25404  -0.99955  -0.92905
  Beta  occ. eigenvalues --   -0.84278  -0.77203  -0.72447  -0.64228  -0.58464
  Beta  occ. eigenvalues --   -0.54500  -0.53896  -0.53796  -0.52520  -0.48318
  Beta  occ. eigenvalues --   -0.46564  -0.45347  -0.43176  -0.42600  -0.41529
  Beta  occ. eigenvalues --   -0.35731  -0.33848  -0.31832
  Beta virt. eigenvalues --   -0.05110   0.06192   0.07815   0.09735   0.10577
  Beta virt. eigenvalues --    0.11899   0.13378   0.13908   0.14729   0.15511
  Beta virt. eigenvalues --    0.16097   0.17640   0.18246   0.20625   0.23357

 Mulliken charges and spin densities:
               1          2
     1  C   -0.277763   0.783954
     2  C   -0.111062  -0.160566
     3  H    0.155758   0.025458
     4  H    0.168023   0.025636
     5  C   -0.068022  -0.002318
     6  H    0.074770  -0.000257
     7  H    0.094028  -0.000588
     8  H    0.098629   0.001513
     9  O   -0.194441   0.018721
    10  O   -0.230349   0.324867
    11  H    0.228409  -0.071830
    12  C   -0.146139   0.059651
    13  H    0.096446  -0.002493
    14  H    0.105497  -0.001453
    15  C   -0.295252  -0.001361
    16  H    0.099942   0.000309
    17  H    0.104394   0.000725
    18  H    0.097132   0.000033
 Sum of Mulliken charges =  -0.00000   1.00000

 Dipole moment (field-independent basis, Debye):
    X=              2.6088    Y=              1.3009    Z=              1.2620  Tot=              3.1766
 Quadrupole moment (field-independent basis, Debye-Ang):
   XX=            -45.9928   YY=            -42.7461   ZZ=            -45.0699
   XY=             -4.9468   XZ=             -2.8330   YZ=             -1.7461

  Exact polarizability: 110.044  -3.638  76.701  -1.259  -6.311  60.241
 Approx polarizability:  92.611   2.079  85.330  -1.883 -10.868  75.041

 ******    1 imaginary frequencies (negative Signs) ******

                      1                      2                      3
                      A                      A                      A
 Frequencies --  -1418.0819                48.6262                51.3414
 Red. masses --      1.1885                 2.6411                 3.4251
 Frc consts  --      1.4082                 0.0037                 0.0053
 IR Inten    --   1390.9419                 2.2031                 0.2472

                      4                      5                      6
                      A                      A                      A
 Frequencies --     99.4556               112.2667               124.7788
 Red. masses --      2.5437                 3.1828                 2.4811
 Frc consts  --      0.0148                 0.0236                 0.0228
 IR Inten    --      4.6265                 1.2317                 0.8329

                      7                      8                      9
                      A                      A                      A
 Frequencies --    194.1285               233.0277               283.7875
 Red. masses --      1.4330                 1.1869                 1.9640
 Frc consts  --      0.0318                 0.0380                 0.0932
 IR Inten    --      0.1667                 0.7795                 0.9443

                     10                     11                     12
                      A                      A                      A
 Frequencies --    374.7474               404.2023               465.5033
 Red. masses --      2.3371                 3.2667                 3.5710
 Frc consts  --      0.1934                 0.3145                 0.4559
 IR Inten    --      1.9014                 2.8711                 4.3720

                     13                     14                     15
                      A                      A                      A
 Frequencies --    611.1157               663.6068               790.1994
 Red. masses --      1.6008                 1.6589                 1.1512
 Frc consts  --      0.3522                 0.4304                 0.4235
 IR Inten    --     21.0148                26.1570                 3.1256

                     16                     17                     18
                      A                      A                      A
 Frequencies --    837.4586               887.8245               912.3343
 Red. masses --      1.2620                 2.1872                 3.5575
 Frc consts  --      0.5215                 1.0157                 1.7446
 IR Inten    --     29.9951                 3.0395                 2.0301

                     19                     20                     21
                      A                      A                      A
 Frequencies --    921.6438              1017.0073              1043.6285
 Red. masses --      1.1870                 1.6262                 2.9222
 Frc consts  --      0.5941                 0.9910                 1.8752
 IR Inten    --     56.2477                14.8005                11.2735

                     22                     23                     24
                      A                      A                      A
 Frequencies --   1066.7717              1097.4200              1179.3454
 Red. masses --      3.6091                 1.7140                 1.2841
 Frc consts  --      2.4199                 1.2162                 1.0523
 IR Inten    --     12.7757                 5.5924                 2.4598

                     25                     26                     27
                      A                      A                      A
 Frequencies --   1185.1927              1219.4117              1285.7535
 Red. masses --      1.8425                 1.5905                 1.2500
 Frc consts  --      1.5249                 1.3934                 1.2175
 IR Inten    --      3.9291                 4.7477                 1.9680

                     28                     29                     30
                      A                      A                      A
 Frequencies --   1303.1063              1349.8015              1419.7169
 Red. masses --      1.1499                 1.3804                 1.2217
 Frc consts  --      1.1504                 1.4819                 1.4509
 IR Inten    --      1.4754                 9.2244                 2.5221

                     31                     32                     33
                      A                      A                      A
 Frequencies --   1457.9198              1480.5521              1488.9850
 Red. masses --      1.1463                 1.0513                 1.0716
 Frc consts  --      1.4355                 1.3578                 1.3997
 IR Inten    --      2.7341                 8.7241                11.4941

                     34                     35                     36
                      A                      A                      A
 Frequencies --   1495.2954              1510.9440              1517.7553
 Red. masses --      1.0694                 1.0394                 1.0585
 Frc consts  --      1.4088                 1.3980                 1.4367
 IR Inten    --      3.2384                 7.0312                 1.0452

                     37                     38                     39
                      A                      A                      A
 Frequencies --   1520.3133              1698.3174              3037.3990
 Red. masses --      1.0530                 6.0853                 1.0299
 Frc consts  --      1.4340                10.3412                 5.5982
 IR Inten    --     10.3772                 1.9422                33.1462

                     40                     41                     42
                      A                      A                      A
 Frequencies --   3046.8729              3052.1501              3092.8889
 Red. masses --      1.0626                 1.0345                 1.0980
 Frc consts  --      5.8119                 5.6782                 6.1883
 IR Inten    --     22.4420                26.4945                 5.7951

                     43                     44                     45
                      A                      A                      A
 Frequencies --   3115.3886              3118.7427              3125.0614
 Red. masses --      1.1044                 1.0892                 1.0999
 Frc consts  --      6.3156                 6.2421                 6.3288
 IR Inten    --     41.8316                 7.3657                26.7729

                     46                     47                     48
                      A                      A                      A
 Frequencies --   3129.0133              3143.0689              3215.1459
 Red. masses --      1.1024                 1.1050                 1.0988
 Frc consts  --      6.3594                 6.4313                 6.6921
 IR Inten    --     31.9972                14.8866                 0.2158

 - Thermochemistry -
 -------------------
 Temperature   298.150 Kelvin.  Pressure   1.00000 Atm.
 Atom     1 has atomic number  6 and mass  12.00000

 Molecular mass:   103.07590 amu.
 Principal axes and moments of inertia in atomic units:
                           1         2         3
     Eigenvalues --   416.020891722.287271991.78546
           X            0.99994  -0.00613  -0.00900
           Y            0.00615   0.99998   0.00206
           Z            0.00899  -0.00211   0.99996
 This molecule is an asymmetric top.
 Rotational symmetry number  1.
 Rotational temperatures (Kelvin)      0.20820     0.05029     0.04349
 Rotational constants (GHZ):           4.33810     1.04787     0.90609
    1 imaginary frequencies ignored.
 Zero-point vibrational energy     385371.1 (Joules/Mol)
                                   92.10591 (Kcal/Mol)
 Warning -- explicit consideration of  12 degrees of freedom as
           vibrations may cause significant error
 Vibrational temperatures:     69.96    73.87   143.09   161.53   179.53
          (Kelvin)            279.31   335.27   408.31   539.18   581.56
                              669.76   879.26   954.78  1136.92  1204.92
                             1277.38  1312.65  1326.04  1463.25  1501.55
                             1534.85  1578.94  1696.82  1705.23  1754.46
                             1849.91  1874.88  1942.06  2042.66  2097.62
                             2130.18  2142.32  2151.40  2173.91  2183.71
                             2187.39  2443.50  4370.14  4383.77  4391.36
                             4449.98  4482.35  4487.18  4496.27  4501.95
                             4522.18  4625.88

 Zero-point correction=                           0.146780 (Hartree/Particle)
 Thermal correction to Energy=                    0.156667
 Thermal correction to Enthalpy=                  0.157611
 Thermal correction to Gibbs Free Energy=         0.110194
 Sum of electronic and zero-point Energies=           -347.090191
 Sum of electronic and thermal Energies=              -347.080305
 Sum of electronic and thermal Enthalpies=            -347.079361
 Sum of electronic and thermal Free Energies=         -347.126778

                     E (Thermal)             CV                S
                      KCal/Mol        Cal/Mol-Kelvin    Cal/Mol-Kelvin
 Total                   98.310             33.032             99.798
 Electronic               0.000              0.000              1.377
 Translational            0.889              2.981             39.808
 Rotational               0.889              2.981             28.747
 Vibrational             96.532             27.070             29.865
 Vibration     1          0.595              1.978              4.872
 Vibration     2          0.596              1.977              4.765
 Vibration     3          0.604              1.949              3.465
 Vibration     4          0.607              1.939              3.229
 Vibration     5          0.610              1.928              3.025
 Vibration     6          0.635              1.848              2.188
 Vibration     7          0.654              1.790              1.855
 Vibration     8          0.682              1.704              1.511
 Vibration     9          0.746              1.524              1.060
 Vibration    10          0.769              1.461              0.947
 Vibration    11          0.823              1.327              0.750
 Vibration    12          0.970              1.008              0.431

 Optimization completed.
    -- Stationary point found.

 1\1\GINC-N58\Freq\UB2PLYPD3-FC\CC-pVTZ\C5H11O2(2)\ROOT\06-Jun-2019\0\\
 #N Geom=AllCheck Guess=TCheck SCRF=Check GenChk UB2PLYPD3(FC)/CC-pVTZ
 Freq\\Title Card Required\\0,2\C,0.2688374269,-1.3128025452,0.48165007
 35\C,0.9747350407,-0.4995758464,-0.2662215099\H,0.5324098111,-2.052152
 3221,1.2239586674\H,0.4484969698,0.1629839822,-0.950170529\C,-2.242219
 8776,1.3181494208,0.3796831179\H,-1.4125516385,1.2748041499,1.08678418
 \H,-2.2307218261,2.2682045637,-0.1511028595\H,-3.1869057039,1.19281994
 74,0.9058719181\O,-2.0964890545,0.3275216328,-0.6278493763\O,-2.192979

 Normal termination of Gaussian 16 at Thu Jun  6 04:16:25 2019.
