 Gaussian 16, Revision B.01,
 Gaussian 16:  ES64L-G16RevB.01 20-Dec-2017

 ----------------------------------------------------------------------
 # opt=(calcfc,ts,noeigentest,maxcyc=500) freq=noraman uB2PLYPD3/cc-pvt
 z
 ----------------------------------------------------------------------

 -------------------
 Title Card Required
 -------------------
 Symbolic Z-matrix:
 Charge =  0 Multiplicity = 2

 SCF Done:  E(UB2PLYPD3) =  -345.567458456     A.U. after   21 cycles
 E2(B2PLYPD3) =    -0.4327714572D+00 E(B2PLYPD3) =    -0.34600022991274D+03
 E2(B2PLYPD3) =    -0.4327714572D+00 E(B2PLYPD3) =    -0.34600022991274D+03
 SCF Done:  E(UB2PLYPD3) =  -345.567426712     A.U. after   13 cycles
 E2(B2PLYPD3) =    -0.4328297972D+00 E(B2PLYPD3) =    -0.34600025650949D+03
 SCF Done:  E(UB2PLYPD3) =  -345.567425320     A.U. after   10 cycles
 E2(B2PLYPD3) =    -0.4328313093D+00 E(B2PLYPD3) =    -0.34600025662925D+03
 Optimization completed.
    -- Stationary point found.
 Normal termination of Gaussian 16 at Mon Jun 24 12:14:41 2019.

 ----------------------------------------------------------------------
 #N Geom=AllCheck Guess=TCheck SCRF=Check GenChk UB2PLYPD3(FC)/CC-pVTZ
 Freq
 ----------------------------------------------------------------------

 Structure from the checkpoint file:  "/localscratch/353442/Gau-94840.chk"
 -------------------
 Title Card Required
 -------------------
 Charge =  0 Multiplicity = 2

                         Standard orientation:
 ---------------------------------------------------------------------
 Center     Atomic      Atomic             Coordinates (Angstroms)
 Number     Number       Type             X           Y           Z
 ---------------------------------------------------------------------
      1          6           0       -1.333850   -0.818781    0.616699
      2          1           0       -2.188092   -1.364798    1.032237
      3          1           0       -0.647448   -0.653995    1.451454
      4          6           0       -0.660927   -1.669961   -0.431460
      5          1           0       -0.480566   -2.697788   -0.135236
      6          1           0       -1.024106   -1.559079   -1.446389
      7          6           0        1.646550    1.408723   -0.085806
      8          1           0        0.726607    1.502868   -0.660739
      9          1           0        1.665851    2.154074    0.706526
     10          1           0        2.514465    1.522582   -0.732713
     11          8           0        1.693342    0.154527    0.587574
     12          8           0        1.731413   -0.857167   -0.392209
     13          1           0        0.639566   -1.206982   -0.486350
     14          6           0       -1.801658    0.468559    0.115439
     15          6           0       -2.193768    1.523395   -0.315548
     16          1           0       -2.542401    2.452632   -0.687648
 ---------------------------------------------------------------------

 SCF Done:  E(UB2PLYPD3) =  -345.567425320     A.U. after    1 cycles
 E2(B2PLYPD3) =    -0.4328313072D+00 E(B2PLYPD3) =    -0.34600025662716D+03
 E2(B2PLYPD3) =    -0.4328313072D+00 E(B2PLYPD3) =    -0.34600025662716D+03

 The electronic state is 2-A.
 Alpha  occ. eigenvalues --  -19.78658 -19.78509 -10.65462 -10.65449 -10.64944
 Alpha  occ. eigenvalues --  -10.62882 -10.61495  -1.27393  -1.02128  -0.93815
 Alpha  occ. eigenvalues --   -0.85429  -0.77656  -0.75402  -0.62204  -0.61427
 Alpha  occ. eigenvalues --   -0.56473  -0.55707  -0.54243  -0.52576  -0.49763
 Alpha  occ. eigenvalues --   -0.49097  -0.46692  -0.43805  -0.37657  -0.36451
 Alpha  occ. eigenvalues --   -0.33589  -0.33155  -0.29954
 Alpha virt. eigenvalues --    0.07194   0.08811   0.09436   0.10710   0.11270
 Alpha virt. eigenvalues --    0.11595   0.13533   0.14730   0.15106   0.16956
 Alpha virt. eigenvalues --    0.18283   0.20158   0.22036   0.24482   0.27483

  Beta  occ. eigenvalues --  -19.78498 -19.76962 -10.65520 -10.65456 -10.63642
  Beta  occ. eigenvalues --  -10.62866 -10.61510  -1.25541  -0.99334  -0.92841
  Beta  occ. eigenvalues --   -0.84542  -0.77116  -0.73143  -0.61956  -0.58056
  Beta  occ. eigenvalues --   -0.56119  -0.54681  -0.53900  -0.51187  -0.48975
  Beta  occ. eigenvalues --   -0.46077  -0.45839  -0.43066  -0.35654  -0.33579
  Beta  occ. eigenvalues --   -0.33101  -0.32861
  Beta virt. eigenvalues --   -0.04955   0.07414   0.08889   0.09626   0.10831
  Beta virt. eigenvalues --    0.11483   0.11769   0.14086   0.14840   0.15441
  Beta virt. eigenvalues --    0.17125   0.18364   0.20638   0.22313   0.24690

 Mulliken charges and spin densities:
               1          2
     1  C   -0.167769  -0.038200
     2  H    0.133020   0.036087
     3  H    0.136335   0.015635
     4  C   -0.274047   0.665305
     5  H    0.126034  -0.013934
     6  H    0.125468  -0.012880
     7  C   -0.055302  -0.003177
     8  H    0.077914   0.000273
     9  H    0.092489  -0.000615
    10  H    0.095459   0.002295
    11  O   -0.198411   0.028012
    12  O   -0.226449   0.397106
    13  H    0.216007  -0.079869
    14  C   -0.061757   0.011962
    15  C   -0.189353  -0.008307
    16  H    0.170361   0.000307
 Sum of Mulliken charges =  -0.00000   1.00000

 Dipole moment (field-independent basis, Debye):
    X=             -1.8591    Y=              0.4877    Z=             -0.3586  Tot=              1.9552
 Quadrupole moment (field-independent basis, Debye-Ang):
   XX=            -47.3865   YY=            -36.1681   ZZ=            -43.5991
   XY=              3.9272   XZ=             -0.2626   YZ=             -1.7692

  Exact polarizability:  87.486   7.018  86.923   2.381  -1.406  55.961
 Approx polarizability:  81.986  -1.205  95.025   3.810  -4.043  69.609

 ******    1 imaginary frequencies (negative Signs) ******

                      1                      2                      3
                      A                      A                      A
 Frequencies --  -1904.6136                23.8136                66.2876
 Red. masses --      1.1104                 3.8198                 4.5052
 Frc consts  --      2.3732                 0.0013                 0.0117
 IR Inten    --   1667.0897                 3.4379                 1.1823

                      4                      5                      6
                      A                      A                      A
 Frequencies --    108.0546               134.2883               192.9720
 Red. masses --      3.0677                 2.4972                 1.8119
 Frc consts  --      0.0211                 0.0265                 0.0398
 IR Inten    --      0.1349                 8.2142                 1.6181

                      7                      8                      9
                      A                      A                      A
 Frequencies --    216.1437               311.7922               328.3463
 Red. masses --      1.6745                 3.1078                 3.0863
 Frc consts  --      0.0461                 0.1780                 0.1960
 IR Inten    --      0.8953                 2.2189                11.0794

                     10                     11                     12
                      A                      A                      A
 Frequencies --    424.3877               464.1445               526.9223
 Red. masses --      1.3294                 2.5086                 3.8844
 Frc consts  --      0.1411                 0.3184                 0.6354
 IR Inten    --      1.9720                 3.8379                 4.1594

                     13                     14                     15
                      A                      A                      A
 Frequencies --    565.8298               651.3256               661.4970
 Red. masses --      3.3766                 1.2369                 1.2384
 Frc consts  --      0.6369                 0.3092                 0.3193
 IR Inten    --      1.9857                45.6478                44.0288

                     16                     17                     18
                      A                      A                      A
 Frequencies --    835.4223               850.7768               912.3541
 Red. masses --      1.4367                 2.6157                 5.1400
 Frc consts  --      0.5908                 1.1155                 2.5208
 IR Inten    --     10.1707                 0.3483                 9.8607

                     19                     20                     21
                      A                      A                      A
 Frequencies --   1043.7192              1051.2002              1063.5249
 Red. masses --      2.9185                 2.7878                 1.4609
 Frc consts  --      1.8732                 1.8151                 0.9735
 IR Inten    --     38.8810                 7.8807                12.1823

                     22                     23                     24
                      A                      A                      A
 Frequencies --   1110.2315              1127.0380              1183.2797
 Red. masses --      1.2696                 1.7281                 1.2684
 Frc consts  --      0.9220                 1.2933                 1.0463
 IR Inten    --      2.4472                 0.3268                 1.1996

                     25                     26                     27
                      A                      A                      A
 Frequencies --   1216.5102              1257.7106              1360.7636
 Red. masses --      1.5446                 1.1644                 1.4421
 Frc consts  --      1.3468                 1.0852                 1.5733
 IR Inten    --      3.0570                 4.4465                 5.9465

                     28                     29                     30
                      A                      A                      A
 Frequencies --   1454.7662              1461.7238              1463.0691
 Red. masses --      1.0770                 1.0964                 1.1180
 Frc consts  --      1.3430                 1.3802                 1.4100
 IR Inten    --     16.2211                 1.9923                 6.2460

                     31                     32                     33
                      A                      A                      A
 Frequencies --   1478.6411              1484.9807              1516.3720
 Red. masses --      1.1075                 1.0591                 1.0503
 Frc consts  --      1.4266                 1.3760                 1.4230
 IR Inten    --      6.3310                 8.7733                 8.5226

                     34                     35                     36
                      A                      A                      A
 Frequencies --   2188.6110              3012.5535              3048.3300
 Red. masses --      6.1245                 1.0660                 1.0276
 Frc consts  --     17.2847                 5.6998                 5.6261
 IR Inten    --      2.0462                 7.7352                38.1687

                     37                     38                     39
                      A                      A                      A
 Frequencies --   3056.1162              3115.3983              3131.4621
 Red. masses --      1.0903                 1.0529                 1.1077
 Frc consts  --      5.9997                 6.0211                 6.4001
 IR Inten    --      0.5161                12.4573                26.3427

                     40                     41                     42
                      A                      A                      A
 Frequencies --   3148.1280              3208.1494              3488.5124
 Red. masses --      1.1049                 1.1132                 1.1556
 Frc consts  --      6.4519                 6.7506                 8.2857
 IR Inten    --     14.5207                 6.4758                61.6871

 - Thermochemistry -
 -------------------
 Temperature   298.150 Kelvin.  Pressure   1.00000 Atm.
 Atom     1 has atomic number  6 and mass  12.00000

 Molecular mass:   101.06025 amu.
 Principal axes and moments of inertia in atomic units:
                           1         2         3
     Eigenvalues --   571.893121060.414571462.95658
           X            0.99839   0.05650  -0.00576
           Y           -0.05657   0.99832  -0.01288
           Z            0.00503   0.01318   0.99990
 This molecule is an asymmetric top.
 Rotational symmetry number  1.
 Warning -- assumption of classical behavior for rotation
           may cause significant error
 Rotational temperatures (Kelvin)      0.15145     0.08168     0.05920
 Rotational constants (GHZ):           3.15573     1.70192     1.23363
    1 imaginary frequencies ignored.
 Zero-point vibrational energy     322663.7 (Joules/Mol)
                                   77.11846 (Kcal/Mol)
 Warning -- explicit consideration of  12 degrees of freedom as
           vibrations may cause significant error
 Vibrational temperatures:     34.26    95.37   155.47   193.21   277.64
          (Kelvin)            310.98   448.60   472.42   610.60   667.80
                              758.12   814.10   937.11   951.75  1201.99
                             1224.08  1312.67  1501.68  1512.44  1530.18
                             1597.38  1621.56  1702.48  1750.29  1809.56
                             1957.84  2093.08  2103.09  2105.03  2127.43
                             2136.56  2181.72  3148.92  4334.39  4385.87
                             4397.07  4482.36  4505.48  4529.45  4615.81
                             5019.19

 Zero-point correction=                           0.122896 (Hartree/Particle)
 Thermal correction to Energy=                    0.132307
 Thermal correction to Enthalpy=                  0.133251
 Thermal correction to Gibbs Free Energy=         0.086948
 Sum of electronic and zero-point Energies=           -345.877361
 Sum of electronic and thermal Energies=              -345.867950
 Sum of electronic and thermal Enthalpies=            -345.867006
 Sum of electronic and thermal Free Energies=         -345.913308

                     E (Thermal)             CV                S
                      KCal/Mol        Cal/Mol-Kelvin    Cal/Mol-Kelvin
 Total                   83.024             31.930             97.452
 Electronic               0.000              0.000              1.377
 Translational            0.889              2.981             39.749
 Rotational               0.889              2.981             28.275
 Vibrational             81.246             25.969             28.050
 Vibration     1          0.593              1.985              6.288
 Vibration     2          0.598              1.970              4.261
 Vibration     3          0.606              1.943              3.304
 Vibration     4          0.613              1.919              2.884
 Vibration     5          0.635              1.850              2.199
 Vibration     6          0.645              1.816              1.991
 Vibration     7          0.700              1.651              1.353
 Vibration     8          0.712              1.619              1.268
 Vibration     9          0.786              1.417              0.877
 Vibration    10          0.822              1.330              0.754
 Vibration    11          0.882              1.190              0.594
 Vibration    12          0.922              1.105              0.512

 Optimization completed.
    -- Stationary point found.

 1\1\GINC-N142\Freq\UB2PLYPD3-FC\CC-pVTZ\C5H9O2(2)\ROOT\24-Jun-2019\0\\
 #N Geom=AllCheck Guess=TCheck SCRF=Check GenChk UB2PLYPD3(FC)/CC-pVTZ
 Freq\\Title Card Required\\0,2\C,-1.2908925379,0.8611969743,-0.1644991
 674\H,-2.1572949403,1.5291684988,-0.225283864\H,-0.894706968,0.7893668
 183,-1.1808637967\C,-0.2520377827,1.4742597279,0.7415389904\H,-0.04326
 97873,2.5214514636,0.5504543915\H,-0.3220321304,1.221593976,1.79298398
 27\C,1.4813246152,-1.6613720679,-0.7025823898\H,0.7584703671,-1.783836
 1475,0.1025203437\H,1.1863110128,-2.2630702137,-1.559691736\H,2.477584

 Normal termination of Gaussian 16 at Mon Jun 24 13:40:07 2019.
