 Gaussian 16, Revision B.01,
 Gaussian 16:  ES64L-G16RevB.01 20-Dec-2017

 ----------------------------------------------------------------------
 # opt=(calcfc,ts,noeigentest,maxcyc=500) freq=noraman uB2PLYPD3/cc-pvt
 z
 ----------------------------------------------------------------------

 -------------------
 Title Card Required
 -------------------
 Symbolic Z-matrix:
 Charge =  0 Multiplicity = 2

 SCF Done:  E(UB2PLYPD3) =  -345.583853222     A.U. after   25 cycles
 E2(B2PLYPD3) =    -0.4282855356D+00 E(B2PLYPD3) =    -0.34601213875771D+03
 E2(B2PLYPD3) =    -0.4282855356D+00 E(B2PLYPD3) =    -0.34601213875771D+03
 SCF Done:  E(UB2PLYPD3) =  -345.584078561     A.U. after   18 cycles
 E2(B2PLYPD3) =    -0.4285619866D+00 E(B2PLYPD3) =    -0.34601264054756D+03
 SCF Done:  E(UB2PLYPD3) =  -345.584064480     A.U. after   16 cycles
 E2(B2PLYPD3) =    -0.4285812623D+00 E(B2PLYPD3) =    -0.34601264574239D+03
 SCF Done:  E(UB2PLYPD3) =  -345.584063961     A.U. after    9 cycles
 E2(B2PLYPD3) =    -0.4285817829D+00 E(B2PLYPD3) =    -0.34601264574427D+03
 Optimization completed.
    -- Stationary point found.
 Normal termination of Gaussian 16 at Wed Jun  5 19:09:51 2019.

 ----------------------------------------------------------------------
 #N Geom=AllCheck Guess=TCheck SCRF=Check GenChk UB2PLYPD3(FC)/CC-pVTZ
 Freq
 ----------------------------------------------------------------------

 Structure from the checkpoint file:  "/localscratch/341085/Gau-15118.chk"
 -------------------
 Title Card Required
 -------------------
 Charge =  0 Multiplicity = 2

                         Standard orientation:
 ---------------------------------------------------------------------
 Center     Atomic      Atomic             Coordinates (Angstroms)
 Number     Number       Type             X           Y           Z
 ---------------------------------------------------------------------
      1          6           0       -0.362423    1.349903    0.303694
      2          6           0       -1.080795    0.312170   -0.065841
      3          1           0       -0.590266    2.268026    0.824510
      4          1           0       -0.586828   -0.499197   -0.595227
      5          6           0        2.314256   -1.098203    0.628575
      6          1           0        1.583734   -0.866838    1.405101
      7          1           0        2.304199   -2.164822    0.413021
      8          1           0        3.307847   -0.787922    0.946725
      9          8           0        1.963175   -0.469266   -0.596269
     10          8           0        2.048217    0.931110   -0.391950
     11          1           0        1.038957    1.200003   -0.086220
     12          6           0       -2.515935    0.160186    0.182369
     13          6           0       -3.210732   -0.906892   -0.208868
     14          1           0       -3.009855    0.966727    0.709144
     15          1           0       -4.268867   -0.991803   -0.012902
     16          1           0       -2.736275   -1.721909   -0.737980
 ---------------------------------------------------------------------

 SCF Done:  E(UB2PLYPD3) =  -345.584063961     A.U. after    1 cycles
 E2(B2PLYPD3) =    -0.4285817835D+00 E(B2PLYPD3) =    -0.34601264574483D+03
 E2(B2PLYPD3) =    -0.4285817835D+00 E(B2PLYPD3) =    -0.34601264574483D+03

 The electronic state is 2-A.
 Alpha  occ. eigenvalues --  -19.78653 -19.78290 -10.65956 -10.65440 -10.64029
 Alpha  occ. eigenvalues --  -10.63934 -10.62496  -1.27259  -1.02723  -0.94709
 Alpha  occ. eigenvalues --   -0.86864  -0.77781  -0.71252  -0.65677  -0.61854
 Alpha  occ. eigenvalues --   -0.56764  -0.55540  -0.54377  -0.52964  -0.49591
 Alpha  occ. eigenvalues --   -0.48633  -0.44313  -0.43858  -0.39833  -0.37705
 Alpha  occ. eigenvalues --   -0.36896  -0.31335  -0.29849
 Alpha virt. eigenvalues --    0.01081   0.08851   0.09184   0.10159   0.11151
 Alpha virt. eigenvalues --    0.12328   0.13032   0.14696   0.15664   0.16485
 Alpha virt. eigenvalues --    0.17702   0.20338   0.23202   0.26097   0.28574

  Beta  occ. eigenvalues --  -19.78552 -19.77065 -10.65961 -10.64257 -10.63692
  Beta  occ. eigenvalues --  -10.63663 -10.62700  -1.25788  -1.00510  -0.93876
  Beta  occ. eigenvalues --   -0.85339  -0.77473  -0.69141  -0.64811  -0.58804
  Beta  occ. eigenvalues --   -0.56063  -0.54712  -0.54110  -0.51826  -0.48083
  Beta  occ. eigenvalues --   -0.47156  -0.43492  -0.43267  -0.39636  -0.36010
  Beta  occ. eigenvalues --   -0.34284  -0.29015
  Beta virt. eigenvalues --   -0.05577   0.01890   0.08890   0.09474   0.10272
  Beta virt. eigenvalues --    0.11156   0.12965   0.13273   0.14834   0.15809
  Beta virt. eigenvalues --    0.16537   0.18035   0.20748   0.23535   0.26766

 Mulliken charges and spin densities:
               1          2
     1  C   -0.277389   0.871549
     2  C   -0.079694  -0.194073
     3  H    0.156648   0.022791
     4  H    0.167979   0.027289
     5  C   -0.068190  -0.001968
     6  H    0.075646  -0.000382
     7  H    0.095288  -0.000528
     8  H    0.099904   0.001414
     9  O   -0.194846   0.017332
    10  O   -0.228984   0.307043
    11  H    0.228763  -0.071084
    12  C   -0.065500   0.144366
    13  C   -0.301253  -0.132508
    14  H    0.133013  -0.005297
    15  H    0.131517   0.008563
    16  H    0.127098   0.005494
 Sum of Mulliken charges =   0.00000   1.00000

 Dipole moment (field-independent basis, Debye):
    X=             -2.0247    Y=             -0.7998    Z=              1.9056  Tot=              2.8932
 Quadrupole moment (field-independent basis, Debye-Ang):
   XX=            -42.4511   YY=            -39.4465   ZZ=            -45.8581
   XY=             -3.4047   XZ=              3.0689   YZ=              2.2328

  Exact polarizability: 120.158   8.310  81.740   0.831   8.493  50.536
 Approx polarizability:  99.964  17.160  99.288   1.343  12.459  62.417

 ******    1 imaginary frequencies (negative Signs) ******

                      1                      2                      3
                      A                      A                      A
 Frequencies --  -1295.3337                50.4391                69.2008
 Red. masses --      1.2510                 3.4764                 3.4479
 Frc consts  --      1.2367                 0.0052                 0.0097
 IR Inten    --   1394.0601                 0.8342                 1.5870

                      4                      5                      6
                      A                      A                      A
 Frequencies --     93.4509               134.1860               168.3337
 Red. masses --      2.5284                 2.4303                 2.5234
 Frc consts  --      0.0130                 0.0258                 0.0421
 IR Inten    --      4.4097                 1.0717                 1.0073

                      7                      8                      9
                      A                      A                      A
 Frequencies --    191.9206               251.0741               365.1466
 Red. masses --      1.7234                 1.8488                 3.3003
 Frc consts  --      0.0374                 0.0687                 0.2593
 IR Inten    --      0.0378                 3.1223                 0.8756

                     10                     11                     12
                      A                      A                      A
 Frequencies --    461.4710               473.3400               572.6787
 Red. masses --      3.6214                 3.3605                 1.1798
 Frc consts  --      0.4544                 0.4436                 0.2280
 IR Inten    --     10.4675                 8.9246                 1.9182

                     13                     14                     15
                      A                      A                      A
 Frequencies --    650.1213               681.7356               826.0828
 Red. masses --      1.6140                 1.4686                 1.2919
 Frc consts  --      0.4019                 0.4022                 0.5194
 IR Inten    --     34.9229                41.6732                53.7461

                     16                     17                     18
                      A                      A                      A
 Frequencies --    910.2435               942.6883               950.5354
 Red. masses --      4.1697                 1.8188                 1.2699
 Frc consts  --      2.0355                 0.9523                 0.6760
 IR Inten    --      9.6899                 1.7230                 0.8710

                     19                     20                     21
                      A                      A                      A
 Frequencies --    965.7705              1038.7367              1042.7569
 Red. masses --      1.4374                 2.8476                 1.0991
 Frc consts  --      0.7899                 1.8103                 0.7041
 IR Inten    --     55.3109                31.8971                34.7031

                     22                     23                     24
                      A                      A                      A
 Frequencies --   1093.8243              1179.9306              1206.5265
 Red. masses --      2.3941                 1.2697                 1.8843
 Frc consts  --      1.6876                 1.0415                 1.6161
 IR Inten    --     11.5771                 1.7655                 2.4688

                     25                     26                     27
                      A                      A                      A
 Frequencies --   1225.2838              1289.0641              1333.4357
 Red. masses --      1.7004                 1.2060                 1.2624
 Frc consts  --      1.5041                 1.1807                 1.3225
 IR Inten    --      5.7580                 0.9332                 1.8666

                     28                     29                     30
                      A                      A                      A
 Frequencies --   1457.5015              1458.4402              1480.6047
 Red. masses --      1.2083                 1.1459                 1.0527
 Frc consts  --      1.5123                 1.4360                 1.3597
 IR Inten    --      4.5138                 2.7851                 7.5006

                     31                     32                     33
                      A                      A                      A
 Frequencies --   1488.1738              1520.0440              1670.7387
 Red. masses --      1.0723                 1.0516                 4.7022
 Frc consts  --      1.3992                 1.4315                 7.7333
 IR Inten    --     10.1722                 8.5889                11.1290

                     34                     35                     36
                      A                      A                      A
 Frequencies --   1777.8410              3038.1575              3116.8684
 Red. masses --      5.9612                 1.0301                 1.1043
 Frc consts  --     11.1012                 5.6020                 6.3209
 IR Inten    --      0.4719                32.8399                40.5047

                     37                     38                     39
                      A                      A                      A
 Frequencies --   3125.1707              3144.8346              3162.8404
 Red. masses --      1.0857                 1.1051                 1.0588
 Frc consts  --      6.2476                 6.4392                 6.2407
 IR Inten    --      2.7973                13.6885                 4.7532

                     40                     41                     42
                      A                      A                      A
 Frequencies --   3180.8716              3222.9551              3254.5460
 Red. masses --      1.0930                 1.1000                 1.1163
 Frc consts  --      6.5156                 6.7323                 6.9666
 IR Inten    --      8.6808                 0.2650                 7.9334

 - Thermochemistry -
 -------------------
 Temperature   298.150 Kelvin.  Pressure   1.00000 Atm.
 Atom     1 has atomic number  6 and mass  12.00000

 Molecular mass:   101.06025 amu.
 Principal axes and moments of inertia in atomic units:
                           1         2         3
     Eigenvalues --   367.409791728.334091953.17443
           X            0.99989  -0.00716   0.01315
           Y            0.00694   0.99983   0.01680
           Z           -0.01327  -0.01671   0.99977
 This molecule is an asymmetric top.
 Rotational symmetry number  1.
 Rotational temperatures (Kelvin)      0.23574     0.05011     0.04435
 Rotational constants (GHZ):           4.91207     1.04421     0.92400
    1 imaginary frequencies ignored.
 Zero-point vibrational energy     324592.1 (Joules/Mol)
                                   77.57938 (Kcal/Mol)
 Warning -- explicit consideration of  11 degrees of freedom as
           vibrations may cause significant error
 Vibrational temperatures:     72.57    99.56   134.45   193.06   242.19
          (Kelvin)            276.13   361.24   525.36   663.95   681.03
                              823.96   935.38   980.87  1188.55  1309.64
                             1356.32  1367.61  1389.53  1494.51  1500.29
                             1573.77  1697.66  1735.92  1762.91  1854.68
                             1918.52  2097.02  2098.37  2130.26  2141.15
                             2187.00  2403.82  2557.92  4371.23  4484.48
                             4496.42  4524.72  4550.62  4576.56  4637.11
                             4682.57

 Zero-point correction=                           0.123631 (Hartree/Particle)
 Thermal correction to Energy=                    0.132901
 Thermal correction to Enthalpy=                  0.133845
 Thermal correction to Gibbs Free Energy=         0.088001
 Sum of electronic and zero-point Energies=           -345.889015
 Sum of electronic and thermal Energies=              -345.879745
 Sum of electronic and thermal Enthalpies=            -345.878800
 Sum of electronic and thermal Free Energies=         -345.924645

                     E (Thermal)             CV                S
                      KCal/Mol        Cal/Mol-Kelvin    Cal/Mol-Kelvin
 Total                   83.397             31.055             96.488
 Electronic               0.000              0.000              1.377
 Translational            0.889              2.981             39.749
 Rotational               0.889              2.981             28.608
 Vibrational             81.619             25.093             26.754
 Vibration     1          0.595              1.977              4.800
 Vibration     2          0.598              1.969              4.176
 Vibration     3          0.602              1.954              3.587
 Vibration     4          0.613              1.919              2.885
 Vibration     5          0.625              1.881              2.454
 Vibration     6          0.634              1.851              2.209
 Vibration     7          0.663              1.761              1.723
 Vibration     8          0.738              1.544              1.100
 Vibration     9          0.819              1.336              0.762
 Vibration    10          0.830              1.309              0.728
 Vibration    11          0.929              1.090              0.499

 Optimization completed.
    -- Stationary point found.
 Normal termination of Gaussian 16 at Wed Jun  5 20:31:32 2019.
