 Gaussian 16, Revision B.01,
 Gaussian 16:  ES64L-G16RevB.01 20-Dec-2017

 ----------------------------------------------------------------------
 # opt=(calcfc,ts,noeigentest,maxcyc=500) freq=noraman uB2PLYPD3/cc-pvt
 z
 ----------------------------------------------------------------------

 -------------------
 Title Card Required
 -------------------
 Symbolic Z-matrix:
 Charge =  0 Multiplicity = 2

 SCF Done:  E(UB2PLYPD3) =  -346.815327703     A.U. after   22 cycles
 E2(B2PLYPD3) =    -0.4410570458D+00 E(B2PLYPD3) =    -0.34725638474890D+03
 E2(B2PLYPD3) =    -0.4410570458D+00 E(B2PLYPD3) =    -0.34725638474890D+03
 SCF Done:  E(UB2PLYPD3) =  -346.815226109     A.U. after   18 cycles
 E2(B2PLYPD3) =    -0.4413528840D+00 E(B2PLYPD3) =    -0.34725657899263D+03
 SCF Done:  E(UB2PLYPD3) =  -346.815303209     A.U. after   14 cycles
 E2(B2PLYPD3) =    -0.4412808360D+00 E(B2PLYPD3) =    -0.34725658404453D+03
 SCF Done:  E(UB2PLYPD3) =  -346.815255665     A.U. after   13 cycles
 E2(B2PLYPD3) =    -0.4413247038D+00 E(B2PLYPD3) =    -0.34725658036875D+03
 SCF Done:  E(UB2PLYPD3) =  -346.815281993     A.U. after   13 cycles
 E2(B2PLYPD3) =    -0.4413025617D+00 E(B2PLYPD3) =    -0.34725658455447D+03
 SCF Done:  E(UB2PLYPD3) =  -346.815282150     A.U. after   10 cycles
 E2(B2PLYPD3) =    -0.4413025547D+00 E(B2PLYPD3) =    -0.34725658470433D+03
 Optimization completed.
    -- Stationary point found.

 1\1\GINC-N143\FTS\UB2PLYPD3-FC\CC-pVTZ\C5H11O2(2)\ROOT\25-Jun-2019\0\\
 # opt=(calcfc,ts,noeigentest,maxcyc=500) freq=noraman uB2PLYPD3/cc-pvt
 z\\Title Card Required\\0,2\C,1.0218626526,0.6182719727,0.9821145118\H
 ,1.5903092525,0.0623749229,1.7256548508\C,-2.0450999858,-0.9506623315,
 -0.6614839387\H,-1.5394210005,-0.0994482423,-1.1156788322\H,-2.0948695
 963,-1.7751166294,-1.3692766374\H,-3.0452352715,-0.6629049387,-0.34231
 51734\O,-1.2989377939,-1.4481089182,0.4445541916\O,-1.2416988297,-0.44
 86362367,1.4139021517\H,-0.1493617116,0.1088661951,1.1977579109\C,1.30

 Normal termination of Gaussian 16 at Tue Jun 25 03:50:04 2019.

 ----------------------------------------------------------------------
 #N Geom=AllCheck Guess=TCheck SCRF=Check GenChk UB2PLYPD3(FC)/CC-pVTZ
 Freq
 ----------------------------------------------------------------------

 Structure from the checkpoint file:  "/localscratch/353443/Gau-98025.chk"
 -------------------
 Title Card Required
 -------------------
 Charge =  0 Multiplicity = 2

                         Standard orientation:
 ---------------------------------------------------------------------
 Center     Atomic      Atomic             Coordinates (Angstroms)
 Number     Number       Type             X           Y           Z
 ---------------------------------------------------------------------
      1          6           0        1.339146   -0.285233   -0.326805
      2          1           0        1.598871   -0.174615   -1.378143
      3          6           0       -2.293191    0.036877    0.800848
      4          1           0       -1.474276    0.139239    1.511812
      5          1           0       -2.924096    0.922483    0.829720
      6          1           0       -2.876632   -0.853013    1.030270
      7          8           0       -1.797289   -0.029182   -0.532287
      8          8           0       -1.016466   -1.177539   -0.648247
      9          1           0        0.143495   -0.764927   -0.461244
     10          6           0        1.107901    0.980527    0.350353
     11          6           0        0.818152    2.133805   -0.266382
     12          1           0        1.121964    0.959399    1.435629
     13          1           0        0.616452    3.036126    0.290868
     14          1           0        0.776154    2.195789   -1.344865
     15          6           0        2.120054   -1.353018    0.401365
     16          1           0        2.050542   -2.310922   -0.110607
     17          1           0        3.177988   -1.088144    0.467939
     18          1           0        1.747208   -1.485389    1.416626
 ---------------------------------------------------------------------

 SCF Done:  E(UB2PLYPD3) =  -346.815282150     A.U. after    1 cycles
 E2(B2PLYPD3) =    -0.4413025517D+00 E(B2PLYPD3) =    -0.34725658470134D+03
 E2(B2PLYPD3) =    -0.4413025517D+00 E(B2PLYPD3) =    -0.34725658470134D+03

 The electronic state is 2-A.
 Alpha  occ. eigenvalues --  -19.78736 -19.78144 -10.65782 -10.63545 -10.62651
 Alpha  occ. eigenvalues --  -10.62134 -10.61448  -1.27641  -1.01061  -0.93682
 Alpha  occ. eigenvalues --   -0.85592  -0.77389  -0.73962  -0.65642  -0.60222
 Alpha  occ. eigenvalues --   -0.55688  -0.54508  -0.54087  -0.53050  -0.51059
 Alpha  occ. eigenvalues --   -0.47690  -0.45492  -0.44139  -0.43897  -0.41778
 Alpha  occ. eigenvalues --   -0.38483  -0.36071  -0.34516  -0.27340
 Alpha virt. eigenvalues --    0.05907   0.07694   0.09576   0.10303   0.11680
 Alpha virt. eigenvalues --    0.13833   0.14979   0.15606   0.15718   0.16102
 Alpha virt. eigenvalues --    0.17917   0.19342   0.20125   0.22953   0.25189

  Beta  occ. eigenvalues --  -19.78436 -19.76350 -10.65799 -10.63058 -10.62589
  Beta  occ. eigenvalues --  -10.61539 -10.61495  -1.25459  -0.97814  -0.92672
  Beta  occ. eigenvalues --   -0.84622  -0.76885  -0.72498  -0.64927  -0.57110
  Beta  occ. eigenvalues --   -0.54296  -0.53982  -0.53624  -0.52719  -0.49453
  Beta  occ. eigenvalues --   -0.45523  -0.44890  -0.43501  -0.42882  -0.41420
  Beta  occ. eigenvalues --   -0.35448  -0.34562  -0.29953
  Beta virt. eigenvalues --   -0.04940   0.07180   0.07737   0.09645   0.10500
  Beta virt. eigenvalues --    0.11715   0.14336   0.15138   0.15764   0.15814
  Beta virt. eigenvalues --    0.16300   0.18026   0.19805   0.20455   0.23249

 Mulliken charges and spin densities:
               1          2
     1  C   -0.138550   0.443480
     2  H    0.113251  -0.009691
     3  C   -0.060904  -0.007776
     4  H    0.068745   0.004285
     5  H    0.094883  -0.001142
     6  H    0.095685   0.001825
     7  O   -0.176078   0.055849
     8  O   -0.228791   0.470492
     9  H    0.209497  -0.075576
    10  C   -0.110237  -0.234804
    11  C   -0.276536   0.364618
    12  H    0.138300   0.008237
    13  H    0.129205  -0.016463
    14  H    0.125121  -0.013713
    15  C   -0.298766  -0.021924
    16  H    0.113447   0.003061
    17  H    0.104893   0.026500
    18  H    0.096835   0.002744
 Sum of Mulliken charges =   0.00000   1.00000

 Dipole moment (field-independent basis, Debye):
    X=              1.0654    Y=              0.9866    Z=              1.8386  Tot=              2.3428
 Quadrupole moment (field-independent basis, Debye-Ang):
   XX=            -43.3261   YY=            -44.4100   ZZ=            -43.6850
   XY=             -2.8024   XZ=             -4.2169   YZ=             -0.6785

  Exact polarizability: 108.542   5.959  92.322  -0.951  -1.337  63.651
 Approx polarizability:  95.304   2.068  99.472   3.033  -0.429  75.299

 ******    1 imaginary frequencies (negative Signs) ******

                      1                      2                      3
                      A                      A                      A
 Frequencies --  -1879.5642                30.6439                61.7735
 Red. masses --      1.1378                 3.3735                 3.9338
 Frc consts  --      2.3683                 0.0019                 0.0088
 IR Inten    --   2485.3202                 1.8709                 0.2873

                      4                      5                      6
                      A                      A                      A
 Frequencies --    113.3343               144.6376               176.6197
 Red. masses --      2.6841                 1.7467                 1.4551
 Frc consts  --      0.0203                 0.0215                 0.0267
 IR Inten    --      2.5609                 0.3277                 2.1944

                      7                      8                      9
                      A                      A                      A
 Frequencies --    187.2201               214.4026               279.5541
 Red. masses --      1.5069                 1.4529                 2.4320
 Frc consts  --      0.0311                 0.0394                 0.1120
 IR Inten    --      1.0554                 4.7958                 0.2715

                     10                     11                     12
                      A                      A                      A
 Frequencies --    286.9174               468.5905               478.9562
 Red. masses --      2.4969                 3.5480                 2.6335
 Frc consts  --      0.1211                 0.4590                 0.3559
 IR Inten    --      0.7405                 4.8822                 1.4565

                     13                     14                     15
                      A                      A                      A
 Frequencies --    540.8105               647.6384               827.8488
 Red. masses --      4.1089                 1.3266                 1.2203
 Frc consts  --      0.7081                 0.3278                 0.4927
 IR Inten    --     16.4069                20.2717                 4.3972

                     16                     17                     18
                      A                      A                      A
 Frequencies --    883.9491               935.7171               944.9485
 Red. masses --      1.9166                 4.5214                 1.3560
 Frc consts  --      0.8824                 2.3324                 0.7134
 IR Inten    --      0.0371                14.4042                39.2591

                     19                     20                     21
                      A                      A                      A
 Frequencies --   1002.9963              1030.3041              1062.7310
 Red. masses --      1.1879                 1.1641                 6.7028
 Frc consts  --      0.7041                 0.7281                 4.4602
 IR Inten    --      1.5976                 0.8676                58.3535

                     22                     23                     24
                      A                      A                      A
 Frequencies --   1094.1890              1122.4510              1172.2083
 Red. masses --      1.8699                 2.0915                 1.2707
 Frc consts  --      1.3190                 1.5525                 1.0287
 IR Inten    --     19.4780                 8.6462                 1.8276

                     25                     26                     27
                      A                      A                      A
 Frequencies --   1213.4863              1217.2110              1244.9965
 Red. masses --      1.5982                 1.5929                 1.2239
 Frc consts  --      1.3866                 1.3905                 1.1177
 IR Inten    --      2.2105                 5.9319                 6.0708

                     28                     29                     30
                      A                      A                      A
 Frequencies --   1324.4413              1348.9896              1417.9443
 Red. masses --      1.2751                 1.4038                 1.2126
 Frc consts  --      1.3178                 1.5051                 1.4364
 IR Inten    --      2.6128                 2.2876                 5.1896

                     31                     32                     33
                      A                      A                      A
 Frequencies --   1438.4024              1456.5143              1477.9683
 Red. masses --      1.1179                 1.1490                 1.2528
 Frc consts  --      1.3627                 1.4361                 1.6124
 IR Inten    --      4.3892                 6.2219                10.1868

                     34                     35                     36
                      A                      A                      A
 Frequencies --   1482.2954              1502.3873              1509.0069
 Red. masses --      1.0541                 1.0543                 1.0640
 Frc consts  --      1.3646                 1.4022                 1.4275
 IR Inten    --      5.9446                 3.2729                 7.2845

                     37                     38                     39
                      A                      A                      A
 Frequencies --   1512.6056              1669.6389              3034.9944
 Red. masses --      1.0491                 3.7520                 1.0407
 Frc consts  --      1.4143                 6.1626                 5.6480
 IR Inten    --      7.9757                 2.6043                27.2023

                     40                     41                     42
                      A                      A                      A
 Frequencies --   3046.1663              3096.0910              3106.3272
 Red. masses --      1.0280                 1.0916                 1.0877
 Frc consts  --      5.6201                 6.1652                 6.1836
 IR Inten    --     44.3925                 7.5357                12.1440

                     43                     44                     45
                      A                      A                      A
 Frequencies --   3124.5639              3129.6982              3145.6075
 Red. masses --      1.1067                 1.1003                 1.0844
 Frc consts  --      6.3659                 6.3500                 6.3217
 IR Inten    --     34.4020                19.2013                18.4663

                     46                     47                     48
                      A                      A                      A
 Frequencies --   3149.1477              3164.8808              3254.7933
 Red. masses --      1.1047                 1.0633                 1.1168
 Frc consts  --      6.4550                 6.2750                 6.9708
 IR Inten    --     14.2409                 5.3235                 7.8359

 - Thermochemistry -
 -------------------
 Temperature   298.150 Kelvin.  Pressure   1.00000 Atm.
 Atom     1 has atomic number  6 and mass  12.00000

 Molecular mass:   103.07590 amu.
 Principal axes and moments of inertia in atomic units:
                           1         2         3
     Eigenvalues --   620.474501099.790121458.62741
           X            0.99840  -0.05227  -0.02163
           Y            0.05180   0.99843  -0.02150
           Z            0.02272   0.02035   0.99953
 This molecule is an asymmetric top.
 Rotational symmetry number  1.
 Warning -- assumption of classical behavior for rotation
           may cause significant error
 Rotational temperatures (Kelvin)      0.13959     0.07875     0.05938
 Rotational constants (GHZ):           2.90865     1.64099     1.23729
    1 imaginary frequencies ignored.
 Zero-point vibrational energy     387450.1 (Joules/Mol)
                                   92.60280 (Kcal/Mol)
 Warning -- explicit consideration of  12 degrees of freedom as
           vibrations may cause significant error
 Vibrational temperatures:     44.09    88.88   163.06   208.10   254.12
          (Kelvin)            269.37   308.48   402.22   412.81   674.20
                              689.11   778.11   931.81  1191.09  1271.81
                             1346.29  1359.57  1443.09  1482.38  1529.03
                             1574.29  1614.96  1686.55  1745.94  1751.30
                             1791.27  1905.58  1940.90  2040.11  2069.54
                             2095.60  2126.47  2132.69  2161.60  2171.12
                             2176.30  2402.24  4366.68  4382.75  4454.58
                             4469.31  4495.55  4502.94  4525.83  4530.92
                             4553.56  4682.92

 Zero-point correction=                           0.147572 (Hartree/Particle)
 Thermal correction to Energy=                    0.157371
 Thermal correction to Enthalpy=                  0.158315
 Thermal correction to Gibbs Free Energy=         0.111269
 Sum of electronic and zero-point Energies=           -347.109013
 Sum of electronic and thermal Energies=              -347.099214
 Sum of electronic and thermal Enthalpies=            -347.098270
 Sum of electronic and thermal Free Energies=         -347.145316

                     E (Thermal)             CV                S
                      KCal/Mol        Cal/Mol-Kelvin    Cal/Mol-Kelvin
 Total                   98.752             32.786             99.018
 Electronic               0.000              0.000              1.377
 Translational            0.889              2.981             39.808
 Rotational               0.889              2.981             28.389
 Vibrational             96.974             26.825             29.443
 Vibration     1          0.594              1.984              5.787
 Vibration     2          0.597              1.973              4.400
 Vibration     3          0.607              1.938              3.211
 Vibration     4          0.616              1.908              2.742
 Vibration     5          0.628              1.871              2.364
 Vibration     6          0.632              1.857              2.255
 Vibration     7          0.644              1.819              2.006
 Vibration     8          0.680              1.711              1.536
 Vibration     9          0.684              1.698              1.492
 Vibration    10          0.826              1.320              0.742
 Vibration    11          0.835              1.297              0.713
 Vibration    12          0.896              1.160              0.564

 Optimization completed.
    -- Stationary point found.
 Normal termination of Gaussian 16 at Tue Jun 25 05:48:13 2019.
