 Gaussian 16, Revision B.01,
 Gaussian 16:  ES64L-G16RevB.01 20-Dec-2017

 ----------------------------------------------------------------------
 # opt=(calcfc,ts,noeigentest,maxcyc=500) freq=noraman uB2PLYPD3/cc-pvt
 z
 ----------------------------------------------------------------------

 -------------------
 Title Card Required
 -------------------
 Symbolic Z-matrix:
 Charge =  0 Multiplicity = 2

 SCF Done:  E(UB2PLYPD3) =  -346.802457343     A.U. after   21 cycles
 E2(B2PLYPD3) =    -0.4397467798D+00 E(B2PLYPD3) =    -0.34724220412293D+03
 E2(B2PLYPD3) =    -0.4397467798D+00 E(B2PLYPD3) =    -0.34724220412293D+03
 SCF Done:  E(UB2PLYPD3) =  -346.802635167     A.U. after   17 cycles
 E2(B2PLYPD3) =    -0.4400639756D+00 E(B2PLYPD3) =    -0.34724269914239D+03
 SCF Done:  E(UB2PLYPD3) =  -346.802625255     A.U. after   14 cycles
 E2(B2PLYPD3) =    -0.4400819677D+00 E(B2PLYPD3) =    -0.34724270722293D+03
 SCF Done:  E(UB2PLYPD3) =  -346.802628917     A.U. after    9 cycles
 E2(B2PLYPD3) =    -0.4400785367D+00 E(B2PLYPD3) =    -0.34724270745361D+03
 Optimization completed.
    -- Stationary point found.
 Normal termination of Gaussian 16 at Thu Jun  6 06:34:04 2019.

 ----------------------------------------------------------------------
 #N Geom=AllCheck Guess=TCheck SCRF=Check GenChk UB2PLYPD3(FC)/CC-pVTZ
 Freq
 ----------------------------------------------------------------------

 Structure from the checkpoint file:  "/localscratch/341085/Gau-49519.chk"
 -------------------
 Title Card Required
 -------------------
 Charge =  0 Multiplicity = 2

                         Standard orientation:
 ---------------------------------------------------------------------
 Center     Atomic      Atomic             Coordinates (Angstroms)
 Number     Number       Type             X           Y           Z
 ---------------------------------------------------------------------
      1          6           0        0.816272    0.628262    0.032206
      2          6           0        0.387533    1.788052   -0.409813
      3          6           0       -2.735242   -0.009222    0.659964
      4          1           0       -2.081108    0.565390    1.317295
      5          1           0       -3.616764    0.576790    0.407304
      6          1           0       -3.027817   -0.939000    1.144753
      7          8           0       -2.095400   -0.272688   -0.580832
      8          8           0       -0.985761   -1.109035   -0.316308
      9          1           0       -0.144506   -0.378609   -0.162744
     10          1           0        1.008193    2.678874   -0.346980
     11          1           0       -0.593033    1.892959   -0.856114
     12          6           0        2.063171    0.128240    0.654194
     13          1           0        2.731188    0.982125    0.813149
     14          1           0        1.834709   -0.281564    1.640009
     15          6           0        2.758588   -0.938881   -0.195228
     16          1           0        2.104058   -1.794442   -0.352216
     17          1           0        3.027446   -0.538842   -1.170961
     18          1           0        3.664993   -1.288608    0.295689
 ---------------------------------------------------------------------

 SCF Done:  E(UB2PLYPD3) =  -346.802628917     A.U. after    1 cycles
 E2(B2PLYPD3) =    -0.4400785266D+00 E(B2PLYPD3) =    -0.34724270744344D+03
 E2(B2PLYPD3) =    -0.4400785266D+00 E(B2PLYPD3) =    -0.34724270744344D+03

 The electronic state is 2-A.
 Alpha  occ. eigenvalues --  -19.78386 -19.78064 -10.65729 -10.65122 -10.63642
 Alpha  occ. eigenvalues --  -10.61876 -10.61220  -1.26995  -1.02177  -0.93994
 Alpha  occ. eigenvalues --   -0.85799  -0.77483  -0.74381  -0.65485  -0.59946
 Alpha  occ. eigenvalues --   -0.55559  -0.54347  -0.54157  -0.53187  -0.50786
 Alpha  occ. eigenvalues --   -0.48853  -0.45618  -0.44216  -0.43736  -0.42397
 Alpha  occ. eigenvalues --   -0.36695  -0.36657  -0.32329  -0.29741
 Alpha virt. eigenvalues --    0.05616   0.08146   0.09533   0.10653   0.12250
 Alpha virt. eigenvalues --    0.13092   0.14082   0.14869   0.15962   0.16472
 Alpha virt. eigenvalues --    0.17297   0.18249   0.20111   0.22527   0.24533

  Beta  occ. eigenvalues --  -19.78261 -19.76643 -10.65736 -10.63640 -10.63591
  Beta  occ. eigenvalues --  -10.62084 -10.61202  -1.25325  -0.99616  -0.92270
  Beta  occ. eigenvalues --   -0.85167  -0.77125  -0.74066  -0.61867  -0.57778
  Beta  occ. eigenvalues --   -0.54667  -0.53871  -0.53212  -0.52366  -0.49896
  Beta  occ. eigenvalues --   -0.46020  -0.45124  -0.43473  -0.42874  -0.42066
  Beta  occ. eigenvalues --   -0.35594  -0.33602  -0.31898
  Beta virt. eigenvalues --   -0.04799   0.06315   0.08528   0.09747   0.10878
  Beta virt. eigenvalues --    0.12293   0.13616   0.14256   0.14930   0.16100
  Beta virt. eigenvalues --    0.16548   0.17466   0.18414   0.20664   0.22780

 Mulliken charges and spin densities:
               1          2
     1  C   -0.045162   0.710038
     2  C   -0.323272  -0.148290
     3  C   -0.068594  -0.002879
     4  H    0.073992   0.000163
     5  H    0.096241  -0.000678
     6  H    0.095983   0.001678
     7  O   -0.191385   0.021758
     8  O   -0.234168   0.359158
     9  H    0.225035  -0.074645
    10  H    0.130515   0.062460
    11  H    0.157467   0.022004
    12  C   -0.150075  -0.003713
    13  H    0.099304   0.044552
    14  H    0.109499   0.003064
    15  C   -0.290225   0.004706
    16  H    0.111509   0.001639
    17  H    0.102063  -0.000354
    18  H    0.101274  -0.000661
 Sum of Mulliken charges =  -0.00000   1.00000

 Dipole moment (field-independent basis, Debye):
    X=              1.1994    Y=              1.5904    Z=              1.8163  Tot=              2.6957
 Quadrupole moment (field-independent basis, Debye-Ang):
   XX=            -38.8391   YY=            -44.6740   ZZ=            -46.1095
   XY=             -1.8238   XZ=             -2.3705   YZ=             -1.5791

  Exact polarizability: 108.361   4.911  82.519   2.504  -3.458  58.577
 Approx polarizability:  93.267  -0.657  92.668   5.939  -4.496  69.873

 ******    1 imaginary frequencies (negative Signs) ******

                      1                      2                      3
                      A                      A                      A
 Frequencies --  -1619.9242                39.0430                53.0007
 Red. masses --      1.1437                 3.7809                 2.6691
 Frc consts  --      1.7683                 0.0034                 0.0044
 IR Inten    --   1551.7590                 2.5507                 0.4804

                      4                      5                      6
                      A                      A                      A
 Frequencies --     91.5722                97.2569               167.5669
 Red. masses --      2.7357                 2.5216                 2.4371
 Frc consts  --      0.0135                 0.0141                 0.0403
 IR Inten    --      0.7264                 2.4696                 0.6528

                      7                      8                      9
                      A                      A                      A
 Frequencies --    192.1526               225.6686               260.1093
 Red. masses --      1.8805                 1.2357                 1.6084
 Frc consts  --      0.0409                 0.0371                 0.0641
 IR Inten    --      0.2466                 1.1484                 0.8898

                     10                     11                     12
                      A                      A                      A
 Frequencies --    347.9122               418.6169               471.3791
 Red. masses --      2.5021                 1.9916                 3.5233
 Frc consts  --      0.1784                 0.2056                 0.4613
 IR Inten    --      0.8175                 4.5061                 2.5553

                     13                     14                     15
                      A                      A                      A
 Frequencies --    595.2440               599.8364               794.2348
 Red. masses --      1.5796                 2.4965                 1.1832
 Frc consts  --      0.3297                 0.5292                 0.4398
 IR Inten    --      9.0409                 4.1996                 3.5155

                     16                     17                     18
                      A                      A                      A
 Frequencies --    843.2903               865.5719               912.2712
 Red. masses --      1.2713                 1.5610                 4.9026
 Frc consts  --      0.5326                 0.6891                 2.4039
 IR Inten    --     24.7754                 9.7349                12.3057

                     19                     20                     21
                      A                      A                      A
 Frequencies --    927.3945               987.4987              1041.8334
 Red. masses --      1.3302                 1.3633                 2.8100
 Frc consts  --      0.6740                 0.7833                 1.7970
 IR Inten    --     28.9566                 0.4988                10.3631

                     22                     23                     24
                      A                      A                      A
 Frequencies --   1056.5204              1102.2966              1179.4425
 Red. masses --      5.0200                 1.6391                 1.2706
 Frc consts  --      3.3015                 1.1734                 1.0414
 IR Inten    --     23.4221                 4.7848                 1.6376

                     25                     26                     27
                      A                      A                      A
 Frequencies --   1193.9418              1218.9189              1289.3012
 Red. masses --      2.0838                 1.6194                 1.2056
 Frc consts  --      1.7502                 1.4176                 1.1808
 IR Inten    --     11.7664                 3.3797                 7.7367

                     28                     29                     30
                      A                      A                      A
 Frequencies --   1342.1411              1420.7471              1426.2433
 Red. masses --      1.4120                 1.1805                 1.1693
 Frc consts  --      1.4986                 1.4039                 1.4014
 IR Inten    --      5.0732                 6.7151                 4.0777

                     31                     32                     33
                      A                      A                      A
 Frequencies --   1457.7922              1473.3247              1481.5455
 Red. masses --      1.1464                 1.0813                 1.0496
 Frc consts  --      1.4354                 1.3829                 1.3573
 IR Inten    --      3.7874                 3.2979                 8.0280

                     34                     35                     36
                      A                      A                      A
 Frequencies --   1494.3165              1512.9073              1518.1538
 Red. masses --      1.0684                 1.0403                 1.0517
 Frc consts  --      1.4057                 1.4029                 1.4281
 IR Inten    --      8.3566                 5.0642                 2.3110

                     37                     38                     39
                      A                      A                      A
 Frequencies --   1519.7758              1734.9611              3010.5689
 Red. masses --      1.0516                 6.8745                 1.0651
 Frc consts  --      1.4311                12.1918                 5.6876
 IR Inten    --     12.5298                17.6125                21.6606

                     40                     41                     42
                      A                      A                      A
 Frequencies --   3037.4420              3059.3361              3067.9612
 Red. masses --      1.0298                 1.0345                 1.0937
 Frc consts  --      5.5981                 5.7045                 6.0650
 IR Inten    --     36.5463                24.5655                 8.7494

                     43                     44                     45
                      A                      A                      A
 Frequencies --   3097.0461              3115.2844              3133.1080
 Red. masses --      1.0619                 1.1047                 1.1026
 Frc consts  --      6.0010                 6.3166                 6.3772
 IR Inten    --      9.6096                39.5130                23.4837

                     46                     47                     48
                      A                      A                      A
 Frequencies --   3135.9577              3143.4437              3199.9706
 Red. masses --      1.1031                 1.1049                 1.1074
 Frc consts  --      6.3915                 6.4323                 6.6810
 IR Inten    --     22.5296                15.1080                 0.1694

 - Thermochemistry -
 -------------------
 Temperature   298.150 Kelvin.  Pressure   1.00000 Atm.
 Atom     1 has atomic number  6 and mass  12.00000

 Molecular mass:   103.07590 amu.
 Principal axes and moments of inertia in atomic units:
                           1         2         3
     Eigenvalues --   436.252661510.000901740.78283
           X            0.99965  -0.02235  -0.01416
           Y            0.02208   0.99958  -0.01883
           Z            0.01457   0.01851   0.99972
 This molecule is an asymmetric top.
 Rotational symmetry number  1.
 Warning -- assumption of classical behavior for rotation
           may cause significant error
 Rotational temperatures (Kelvin)      0.19854     0.05736     0.04976
 Rotational constants (GHZ):           4.13692     1.19519     1.03674
    1 imaginary frequencies ignored.
 Zero-point vibrational energy     384921.8 (Joules/Mol)
                                   91.99852 (Kcal/Mol)
 Warning -- explicit consideration of  13 degrees of freedom as
           vibrations may cause significant error
 Vibrational temperatures:     56.17    76.26   131.75   139.93   241.09
          (Kelvin)            276.46   324.69   374.24   500.57   602.30
                              678.21   856.42   863.03  1142.73  1213.31
                             1245.36  1312.55  1334.31  1420.79  1498.97
                             1520.10  1585.96  1696.95  1717.82  1753.75
                             1855.02  1931.04  2044.14  2052.05  2097.44
                             2119.79  2131.61  2149.99  2176.74  2184.28
                             2186.62  2496.22  4331.54  4370.20  4401.70
                             4414.11  4455.96  4482.20  4507.84  4511.94
                             4522.71  4604.04

 Zero-point correction=                           0.146609 (Hartree/Particle)
 Thermal correction to Energy=                    0.156579
 Thermal correction to Enthalpy=                  0.157523
 Thermal correction to Gibbs Free Energy=         0.109899
 Sum of electronic and zero-point Energies=           -347.096098
 Sum of electronic and thermal Energies=              -347.086128
 Sum of electronic and thermal Enthalpies=            -347.085184
 Sum of electronic and thermal Free Energies=         -347.132809

                     E (Thermal)             CV                S
                      KCal/Mol        Cal/Mol-Kelvin    Cal/Mol-Kelvin
 Total                   98.255             33.232            100.235
 Electronic               0.000              0.000              1.377
 Translational            0.889              2.981             39.808
 Rotational               0.889              2.981             28.530
 Vibrational             96.477             27.270             30.519
 Vibration     1          0.594              1.981              5.307
 Vibration     2          0.596              1.976              4.702
 Vibration     3          0.602              1.955              3.626
 Vibration     4          0.603              1.951              3.509
 Vibration     5          0.624              1.882              2.463
 Vibration     6          0.634              1.851              2.207
 Vibration     7          0.650              1.802              1.913
 Vibration     8          0.668              1.746              1.661
 Vibration     9          0.726              1.580              1.176
 Vibration    10          0.781              1.430              0.897
 Vibration    11          0.828              1.314              0.734
 Vibration    12          0.953              1.042              0.458
 Vibration    13          0.958              1.032              0.450

 Optimization completed.
    -- Stationary point found.

 1\1\GINC-N58\Freq\UB2PLYPD3-FC\CC-pVTZ\C5H11O2(2)\ROOT\06-Jun-2019\0\\
 #N Geom=AllCheck Guess=TCheck SCRF=Check GenChk UB2PLYPD3(FC)/CC-pVTZ
 Freq\\Title Card Required\\0,2\C,-0.8119222776,0.6400113694,-0.0060194
 034\C,-0.3687564662,1.779575221,0.4728433666\C,2.7277015891,-0.0048742
 88,-0.6907844393\H,2.0724945166,0.5984065253,-1.3207925535\H,3.6167346
 88,0.5642056148,-0.4260267502\H,3.0074226483,-0.9191986707,-1.21124133
 89\O,2.0973211734,-0.3070391432,0.5460282446\O,0.9778587078,-1.1239175
 011,0.2627216312\H,0.1416960627,-0.3813306736,0.1435190096\H,-0.982063

 Normal termination of Gaussian 16 at Thu Jun  6 08:26:59 2019.
