 Gaussian 16, Revision B.01,
 Gaussian 16:  ES64L-G16RevB.01 20-Dec-2017

 ----------------------------------------------------------------------
 # opt=(calcfc,ts,noeigentest,maxcyc=500) freq=noraman uB2PLYPD3/cc-pvt
 z
 ----------------------------------------------------------------------

 -------------------
 Title Card Required
 -------------------
 Symbolic Z-matrix:
 Charge =  0 Multiplicity = 2

 SCF Done:  E(UB2PLYPD3) =  -345.551943944     A.U. after   22 cycles
 E2(B2PLYPD3) =    -0.4336684830D+00 E(B2PLYPD3) =    -0.34598561242719D+03
 E2(B2PLYPD3) =    -0.4336684830D+00 E(B2PLYPD3) =    -0.34598561242719D+03
 SCF Done:  E(UB2PLYPD3) =  -345.570188192     A.U. after   20 cycles
 E2(B2PLYPD3) =    -0.4333482431D+00 E(B2PLYPD3) =    -0.34600353643483D+03
 SCF Done:  E(UB2PLYPD3) =  -345.575755616     A.U. after   20 cycles
 E2(B2PLYPD3) =    -0.4332680360D+00 E(B2PLYPD3) =    -0.34600902365223D+03
 SCF Done:  E(UB2PLYPD3) =  -345.575813248     A.U. after   19 cycles
 E2(B2PLYPD3) =    -0.4339592828D+00 E(B2PLYPD3) =    -0.34600977253087D+03
 SCF Done:  E(UB2PLYPD3) =  -345.576296249     A.U. after   19 cycles
 E2(B2PLYPD3) =    -0.4336671669D+00 E(B2PLYPD3) =    -0.34600996341558D+03
 SCF Done:  E(UB2PLYPD3) =  -345.575307332     A.U. after   22 cycles
 E2(B2PLYPD3) =    -0.4343314567D+00 E(B2PLYPD3) =    -0.34600963878857D+03
 SCF Done:  E(UB2PLYPD3) =  -345.576068273     A.U. after   19 cycles
 E2(B2PLYPD3) =    -0.4338318571D+00 E(B2PLYPD3) =    -0.34600990013004D+03
 SCF Done:  E(UB2PLYPD3) =  -345.575544019     A.U. after   22 cycles
 E2(B2PLYPD3) =    -0.4341280107D+00 E(B2PLYPD3) =    -0.34600967202972D+03
 SCF Done:  E(UB2PLYPD3) =  -345.576121521     A.U. after   19 cycles
 E2(B2PLYPD3) =    -0.4338818018D+00 E(B2PLYPD3) =    -0.34601000332326D+03
 SCF Done:  E(UB2PLYPD3) =  -345.576059783     A.U. after   17 cycles
 E2(B2PLYPD3) =    -0.4339701683D+00 E(B2PLYPD3) =    -0.34601002995149D+03
 E2(B2PLYPD3) =    -0.4339551809D+00 E(B2PLYPD3) =    -0.34601003137027D+03
 E2(B2PLYPD3) =    -0.4339468998D+00 E(B2PLYPD3) =    -0.34601003178810D+03
 E2(B2PLYPD3) =    -0.4371544110D+00 E(B2PLYPD3) =    -0.34599181526260D+03
 E2(B2PLYPD3) =    -0.4337413410D+00 E(B2PLYPD3) =    -0.34600707798782D+03
 E2(B2PLYPD3) =    -0.4316459536D+00 E(B2PLYPD3) =    -0.34601281499509D+03
 E2(B2PLYPD3) =    -0.4335686528D+00 E(B2PLYPD3) =    -0.34601080841974D+03
 E2(B2PLYPD3) =    -0.4342496941D+00 E(B2PLYPD3) =    -0.34600859520148D+03
 E2(B2PLYPD3) =    -0.4340743968D+00 E(B2PLYPD3) =    -0.34600898784702D+03
 E2(B2PLYPD3) =    -0.4340291936D+00 E(B2PLYPD3) =    -0.34600956399587D+03
 E2(B2PLYPD3) =    -0.4341543258D+00 E(B2PLYPD3) =    -0.34600994871853D+03
 E2(B2PLYPD3) =    -0.4339040736D+00 E(B2PLYPD3) =    -0.34601001342550D+03
 E2(B2PLYPD3) =    -0.4339086910D+00 E(B2PLYPD3) =    -0.34600998351752D+03
 E2(B2PLYPD3) =    -0.4339337283D+00 E(B2PLYPD3) =    -0.34601002312810D+03
 E2(B2PLYPD3) =    -0.4339454254D+00 E(B2PLYPD3) =    -0.34601002916317D+03
 E2(B2PLYPD3) =    -0.4343868859D+00 E(B2PLYPD3) =    -0.34600737560786D+03
 E2(B2PLYPD3) =    -0.4340238961D+00 E(B2PLYPD3) =    -0.34600885295740D+03
 SCF Done:  E(UB2PLYPD3) =  -345.574854597     A.U. after   19 cycles
 E2(B2PLYPD3) =    -0.4341632992D+00 E(B2PLYPD3) =    -0.34600901789656D+03
 SCF Done:  E(UB2PLYPD3) =  -345.575342736     A.U. after   20 cycles
 E2(B2PLYPD3) =    -0.4341742973D+00 E(B2PLYPD3) =    -0.34600951703303D+03
 SCF Done:  E(UB2PLYPD3) =  -345.575505552     A.U. after   22 cycles
 E2(B2PLYPD3) =    -0.4340932679D+00 E(B2PLYPD3) =    -0.34600959881964D+03
 SCF Done:  E(UB2PLYPD3) =  -345.576119967     A.U. after   21 cycles
 E2(B2PLYPD3) =    -0.4338450445D+00 E(B2PLYPD3) =    -0.34600996501176D+03
 SCF Done:  E(UB2PLYPD3) =  -345.576081912     A.U. after   17 cycles
 E2(B2PLYPD3) =    -0.4339491861D+00 E(B2PLYPD3) =    -0.34601003109853D+03
 SCF Done:  E(UB2PLYPD3) =  -345.576085450     A.U. after   13 cycles
 E2(B2PLYPD3) =    -0.4339460847D+00 E(B2PLYPD3) =    -0.34601003153520D+03
 SCF Done:  E(UB2PLYPD3) =  -345.576083695     A.U. after   10 cycles
 E2(B2PLYPD3) =    -0.4339480408D+00 E(B2PLYPD3) =    -0.34601003173603D+03
 SCF Done:  E(UB2PLYPD3) =  -345.576077063     A.U. after   11 cycles
 E2(B2PLYPD3) =    -0.4339547911D+00 E(B2PLYPD3) =    -0.34601003185461D+03
 SCF Done:  E(UB2PLYPD3) =  -345.576074719     A.U. after   11 cycles
 E2(B2PLYPD3) =    -0.4339571328D+00 E(B2PLYPD3) =    -0.34601003185221D+03
 Optimization completed.
    -- Stationary point found.
 Normal termination of Gaussian 16 at Tue Jun  4 13:27:25 2019.

 ----------------------------------------------------------------------
 #N Geom=AllCheck Guess=TCheck SCRF=Check GenChk UB2PLYPD3(FC)/CC-pVTZ
 Freq
 ----------------------------------------------------------------------

 Structure from the checkpoint file:  "/localscratch/339753/Gau-45703.chk"
 -------------------
 Title Card Required
 -------------------
 Charge =  0 Multiplicity = 2

                         Standard orientation:
 ---------------------------------------------------------------------
 Center     Atomic      Atomic             Coordinates (Angstroms)
 Number     Number       Type             X           Y           Z
 ---------------------------------------------------------------------
      1          6           0       -0.940110    0.374412   -0.464040
      2          1           0       -0.598956    0.329506   -1.496679
      3          6           0        2.745158   -0.367225   -0.633107
      4          1           0        2.125307   -0.322916   -1.529288
      5          1           0        3.594776    0.304395   -0.733157
      6          1           0        3.084633   -1.387746   -0.468248
      7          8           0        2.024277    0.104714    0.500406
      8          8           0        0.962824   -0.769417    0.736431
      9          1           0        0.015726   -0.288969    0.145283
     10          6           0       -2.122683   -0.380732   -0.232629
     11          6           0       -3.110297   -1.038728    0.001296
     12          1           0       -3.979799   -1.612054    0.198496
     13          6           0       -0.848814    1.747718    0.165407
     14          1           0        0.171620    2.121358    0.106992
     15          1           0       -1.504699    2.451499   -0.350519
     16          1           0       -1.144936    1.709883    1.210860
 ---------------------------------------------------------------------

 SCF Done:  E(UB2PLYPD3) =  -345.576074719     A.U. after    1 cycles
 E2(B2PLYPD3) =    -0.4339571371D+00 E(B2PLYPD3) =    -0.34601003185655D+03
 E2(B2PLYPD3) =    -0.4339571371D+00 E(B2PLYPD3) =    -0.34601003185655D+03

 The electronic state is 2-A.
 Alpha  occ. eigenvalues --  -19.79655 -19.79398 -10.66608 -10.66165 -10.62931
 Alpha  occ. eigenvalues --  -10.62427 -10.61819  -1.28684  -1.02354  -0.93511
 Alpha  occ. eigenvalues --   -0.85580  -0.78392  -0.75351  -0.63419  -0.61000
 Alpha  occ. eigenvalues --   -0.56988  -0.55755  -0.55334  -0.52421  -0.48819
 Alpha  occ. eigenvalues --   -0.47843  -0.44882  -0.44715  -0.40448  -0.37155
 Alpha  occ. eigenvalues --   -0.35301  -0.33322  -0.28976
 Alpha virt. eigenvalues --    0.06684   0.09246   0.10104   0.10293   0.11382
 Alpha virt. eigenvalues --    0.12297   0.12831   0.14874   0.15814   0.16956
 Alpha virt. eigenvalues --    0.17672   0.20915   0.22262   0.23928   0.27304

  Beta  occ. eigenvalues --  -19.79408 -19.77622 -10.66622 -10.65126 -10.63268
  Beta  occ. eigenvalues --  -10.61943 -10.61871  -1.26541  -0.99160  -0.92134
  Beta  occ. eigenvalues --   -0.84713  -0.77893  -0.74027  -0.61845  -0.58464
  Beta  occ. eigenvalues --   -0.56247  -0.54983  -0.54530  -0.50717  -0.48086
  Beta  occ. eigenvalues --   -0.45122  -0.44591  -0.43632  -0.37535  -0.35777
  Beta  occ. eigenvalues --   -0.33084  -0.31087
  Beta virt. eigenvalues --   -0.06547   0.06813   0.09496   0.10416   0.10777
  Beta virt. eigenvalues --    0.11578   0.12873   0.13536   0.14985   0.16014
  Beta virt. eigenvalues --    0.17058   0.17800   0.21521   0.22646   0.24335

 Mulliken charges and spin densities:
               1          2
     1  C   -0.177011   0.487146
     2  H    0.124313  -0.011281
     3  C   -0.057237  -0.005826
     4  H    0.069677   0.002296
     5  H    0.098210  -0.001160
     6  H    0.095778   0.003296
     7  O   -0.178572   0.047235
     8  O   -0.210719   0.468786
     9  H    0.208065  -0.086649
    10  C    0.000244  -0.196442
    11  C   -0.202280   0.293039
    12  H    0.169772  -0.009638
    13  C   -0.273752  -0.024217
    14  H    0.112533   0.003109
    15  H    0.107519   0.027845
    16  H    0.113458   0.002462
 Sum of Mulliken charges =   0.00000   1.00000

 Dipole moment (field-independent basis, Debye):
    X=             -0.0001    Y=              0.6103    Z=             -2.0433  Tot=              2.1325
 Quadrupole moment (field-independent basis, Debye-Ang):
   XX=            -36.1730   YY=            -42.4845   ZZ=            -44.4380
   XY=              1.5315   XZ=             -4.8822   YZ=             -0.0143

  Exact polarizability: 145.881   5.990  68.794   1.760  -3.042  54.958
 Approx polarizability: 122.984  13.653  77.110   1.861  -6.057  66.719

 ******    1 imaginary frequencies (negative Signs) ******

                      1                      2                      3
                      A                      A                      A
 Frequencies --  -1946.2622                22.0080                73.7140
 Red. masses --      1.1230                 3.8070                 3.4178
 Frc consts  --      2.5063                 0.0011                 0.0109
 IR Inten    --   3674.7488                 2.4844                 0.9718

                      4                      5                      6
                      A                      A                      A
 Frequencies --     92.2895               145.3241               170.8274
 Red. masses --      2.8528                 3.0601                 1.3502
 Frc consts  --      0.0143                 0.0381                 0.0232
 IR Inten    --      2.2220                 3.2800                 0.5549

                      7                      8                      9
                      A                      A                      A
 Frequencies --    191.8449               209.8143               274.3061
 Red. masses --      1.1580                 2.7743                 2.7630
 Frc consts  --      0.0251                 0.0720                 0.1225
 IR Inten    --      2.3956                 1.1023                 2.4812

                     10                     11                     12
                      A                      A                      A
 Frequencies --    397.9283               476.4602               519.8620
 Red. masses --      4.6681                 3.7960                 3.7654
 Frc consts  --      0.4355                 0.5077                 0.5996
 IR Inten    --      2.7033                 8.5915                 7.0773

                     13                     14                     15
                      A                      A                      A
 Frequencies --    591.8664               635.2617               653.6364
 Red. masses --      3.8308                 1.2558                 1.2387
 Frc consts  --      0.7907                 0.2986                 0.3118
 IR Inten    --      7.1618                47.0996                45.0361

                     16                     17                     18
                      A                      A                      A
 Frequencies --    818.4223               877.9060               930.6165
 Red. masses --      1.1606                 2.5530                 4.6993
 Frc consts  --      0.4580                 1.1593                 2.3979
 IR Inten    --     10.2531                 0.2832                13.9558

                     19                     20                     21
                      A                      A                      A
 Frequencies --   1058.8169              1071.2921              1109.1178
 Red. masses --      8.2242                 1.9468                 1.6077
 Frc consts  --      5.4323                 1.3164                 1.1652
 IR Inten    --     73.2206                 7.2112                11.4838

                     22                     23                     24
                      A                      A                      A
 Frequencies --   1127.4450              1170.1233              1176.5852
 Red. masses --      1.9229                 1.1899                 1.2128
 Frc consts  --      1.4401                 0.9599                 0.9892
 IR Inten    --      7.1423                 3.3892                 4.9779

                     25                     26                     27
                      A                      A                      A
 Frequencies --   1214.9327              1346.1213              1414.1021
 Red. masses --      1.5513                 1.4092                 1.2089
 Frc consts  --      1.3491                 1.5045                 1.4243
 IR Inten    --      4.4411                 8.3187                 4.7386

                     28                     29                     30
                      A                      A                      A
 Frequencies --   1456.4122              1463.2887              1482.5911
 Red. masses --      1.1374                 1.1130                 1.0503
 Frc consts  --      1.4215                 1.4041                 1.3603
 IR Inten    --      8.4244                 0.8666                 7.4626

                     31                     32                     33
                      A                      A                      A
 Frequencies --   1499.2243              1502.9526              1515.1028
 Red. masses --      1.0524                 1.0475                 1.0503
 Frc consts  --      1.3936                 1.3941                 1.4205
 IR Inten    --      4.7860                 4.3593                13.8054

                     34                     35                     36
                      A                      A                      A
 Frequencies --   2168.2079              3041.6987              3044.7068
 Red. masses --      6.1305                 1.0304                 1.0394
 Frc consts  --     16.9804                 5.6167                 5.6773
 IR Inten    --      4.8681                46.0739                14.1103

                     37                     38                     39
                      A                      A                      A
 Frequencies --   3102.0263              3116.1776              3121.5543
 Red. masses --      1.0838                 1.0946                 1.1038
 Frc consts  --      6.1444                 6.2626                 6.3371
 IR Inten    --      8.8017                 4.6801                37.2491

                     40                     41                     42
                      A                      A                      A
 Frequencies --   3147.8967              3151.9976              3488.6618
 Red. masses --      1.1023                 1.1055                 1.1533
 Frc consts  --      6.4357                 6.4713                 8.2700
 IR Inten    --     11.8993                13.1084                70.0713

 - Thermochemistry -
 -------------------
 Temperature   298.150 Kelvin.  Pressure   1.00000 Atm.
 Atom     1 has atomic number  6 and mass  12.00000

 Molecular mass:   101.06025 amu.
 Principal axes and moments of inertia in atomic units:
                           1         2         3
     Eigenvalues --   394.587841554.509081750.46598
           X            0.99974  -0.00816  -0.02138
           Y            0.00872   0.99961   0.02654
           Z            0.02115  -0.02672   0.99942
 This molecule is an asymmetric top.
 Rotational symmetry number  1.
 Rotational temperatures (Kelvin)      0.21950     0.05572     0.04948
 Rotational constants (GHZ):           4.57374     1.16097     1.03101
    1 imaginary frequencies ignored.
 Zero-point vibrational energy     323429.1 (Joules/Mol)
                                   77.30141 (Kcal/Mol)
 Warning -- explicit consideration of  12 degrees of freedom as
           vibrations may cause significant error
 Vibrational temperatures:     31.66   106.06   132.78   209.09   245.78
          (Kelvin)            276.02   301.88   394.67   572.53   685.52
                              747.97   851.56   914.00   940.44  1177.53
                             1263.11  1338.95  1523.40  1541.35  1595.77
                             1622.14  1683.55  1692.84  1748.02  1936.77
                             2034.58  2095.45  2105.35  2133.12  2157.05
                             2162.41  2179.90  3119.57  4376.33  4380.65
                             4463.12  4483.48  4491.22  4529.12  4535.02
                             5019.41

 Zero-point correction=                           0.123188 (Hartree/Particle)
 Thermal correction to Energy=                    0.132869
 Thermal correction to Enthalpy=                  0.133814
 Thermal correction to Gibbs Free Energy=         0.086690
 Sum of electronic and zero-point Energies=           -345.886844
 Sum of electronic and thermal Energies=              -345.877163
 Sum of electronic and thermal Enthalpies=            -345.876218
 Sum of electronic and thermal Free Energies=         -345.923341

                     E (Thermal)             CV                S
                      KCal/Mol        Cal/Mol-Kelvin    Cal/Mol-Kelvin
 Total                   83.377             32.074             99.179
 Electronic               0.000              0.000              1.377
 Translational            0.889              2.981             39.749
 Rotational               0.889              2.981             28.464
 Vibrational             81.599             26.113             29.588
 Vibration     1          0.593              1.985              6.444
 Vibration     2          0.599              1.966              4.052
 Vibration     3          0.602              1.955              3.611
 Vibration     4          0.617              1.908              2.733
 Vibration     5          0.626              1.878              2.426
 Vibration     6          0.634              1.851              2.210
 Vibration     7          0.642              1.826              2.045
 Vibration     8          0.677              1.721              1.569
 Vibration     9          0.764              1.475              0.970
 Vibration    10          0.833              1.302              0.720
 Vibration    11          0.875              1.206              0.610
 Vibration    12          0.949              1.049              0.464

 Optimization completed.
    -- Stationary point found.
 Normal termination of Gaussian 16 at Tue Jun  4 14:53:24 2019.
