 Gaussian 16, Revision B.01,
 Gaussian 16:  ES64L-G16RevB.01 20-Dec-2017

 ----------------------------------------------------------------------
 # opt=(calcfc,ts,noeigentest,maxcyc=500) freq=noraman uB2PLYPD3/cc-pvt
 z
 ----------------------------------------------------------------------

 -------------------
 Title Card Required
 -------------------
 Symbolic Z-matrix:
 Charge =  0 Multiplicity = 2

 SCF Done:  E(UB2PLYPD3) =  -345.567263351     A.U. after   21 cycles
 E2(B2PLYPD3) =    -0.4319802139D+00 E(B2PLYPD3) =    -0.34599924356453D+03
 E2(B2PLYPD3) =    -0.4319802139D+00 E(B2PLYPD3) =    -0.34599924356453D+03
 SCF Done:  E(UB2PLYPD3) =  -345.567221966     A.U. after   15 cycles
 E2(B2PLYPD3) =    -0.4320647767D+00 E(B2PLYPD3) =    -0.34599928674279D+03
 SCF Done:  E(UB2PLYPD3) =  -345.567248505     A.U. after   13 cycles
 E2(B2PLYPD3) =    -0.4320391280D+00 E(B2PLYPD3) =    -0.34599928763343D+03
 SCF Done:  E(UB2PLYPD3) =  -345.566854916     A.U. after   19 cycles
 E2(B2PLYPD3) =    -0.4320064488D+00 E(B2PLYPD3) =    -0.34599886136516D+03
 SCF Done:  E(UB2PLYPD3) =  -345.567273277     A.U. after   17 cycles
 E2(B2PLYPD3) =    -0.4319774228D+00 E(B2PLYPD3) =    -0.34599925070032D+03
 SCF Done:  E(UB2PLYPD3) =  -345.567254600     A.U. after   14 cycles
 E2(B2PLYPD3) =    -0.4320325367D+00 E(B2PLYPD3) =    -0.34599928713642D+03
 SCF Done:  E(UB2PLYPD3) =  -345.567243669     A.U. after   12 cycles
 E2(B2PLYPD3) =    -0.4320440269D+00 E(B2PLYPD3) =    -0.34599928769600D+03
 Optimization completed.
    -- Stationary point found.
 Normal termination of Gaussian 16 at Mon Jun 24 15:37:24 2019.

 ----------------------------------------------------------------------
 #N Geom=AllCheck Guess=TCheck SCRF=Check GenChk UB2PLYPD3(FC)/CC-pVTZ
 Freq
 ----------------------------------------------------------------------

 Structure from the checkpoint file:  "/localscratch/353442/Gau-70145.chk"
 -------------------
 Title Card Required
 -------------------
 Charge =  0 Multiplicity = 2

                         Standard orientation:
 ---------------------------------------------------------------------
 Center     Atomic      Atomic             Coordinates (Angstroms)
 Number     Number       Type             X           Y           Z
 ---------------------------------------------------------------------
      1          6           0       -1.199553    0.150720   -0.492268
      2          1           0       -1.199342    0.811596   -1.358869
      3          1           0       -0.613528   -0.727129   -0.768558
      4          6           0       -0.558222    0.844021    0.688333
      5          1           0       -0.877099    1.864106    0.872843
      6          1           0       -0.476543    0.247296    1.590397
      7          6           0        2.675316   -0.989048    0.426573
      8          1           0        2.018076   -1.086122    1.292082
      9          1           0        2.891813   -1.971784    0.013105
     10          1           0        3.597716   -0.489592    0.716773
     11          8           0        2.030592   -0.278139   -0.621783
     12          8           0        1.804222    1.039809   -0.172608
     13          1           0        0.747591    1.000594    0.281142
     14          6           0       -2.569897   -0.252046   -0.180408
     15          6           0       -3.694568   -0.568722    0.116605
     16          1           0       -4.685658   -0.851883    0.363210
 ---------------------------------------------------------------------

 SCF Done:  E(UB2PLYPD3) =  -345.567243669     A.U. after    1 cycles
 E2(B2PLYPD3) =    -0.4320440319D+00 E(B2PLYPD3) =    -0.34599928770098D+03
 E2(B2PLYPD3) =    -0.4320440319D+00 E(B2PLYPD3) =    -0.34599928770098D+03

 The electronic state is 2-A.
 Alpha  occ. eigenvalues --  -19.79257 -19.79136 -10.66537 -10.65152 -10.65070
 Alpha  occ. eigenvalues --  -10.62718 -10.61280  -1.27985  -1.02835  -0.93663
 Alpha  occ. eigenvalues --   -0.85220  -0.78429  -0.75364  -0.62450  -0.61215
 Alpha  occ. eigenvalues --   -0.56673  -0.55517  -0.55048  -0.54076  -0.50133
 Alpha  occ. eigenvalues --   -0.48767  -0.45625  -0.44583  -0.38345  -0.37357
 Alpha  occ. eigenvalues --   -0.33564  -0.32629  -0.30540
 Alpha virt. eigenvalues --    0.07099   0.09058   0.10173   0.10304   0.11153
 Alpha virt. eigenvalues --    0.11317   0.12223   0.13927   0.15080   0.17170
 Alpha virt. eigenvalues --    0.18460   0.20004   0.23084   0.24652   0.25848

  Beta  occ. eigenvalues --  -19.79125 -19.77572 -10.66545 -10.65125 -10.63841
  Beta  occ. eigenvalues --  -10.62635 -10.61221  -1.26163  -1.00036  -0.92576
  Beta  occ. eigenvalues --   -0.84155  -0.77978  -0.72989  -0.61626  -0.58454
  Beta  occ. eigenvalues --   -0.55823  -0.54971  -0.54578  -0.53183  -0.48246
  Beta  occ. eigenvalues --   -0.46652  -0.45109  -0.43809  -0.36200  -0.34823
  Beta  occ. eigenvalues --   -0.32616  -0.32369
  Beta virt. eigenvalues --   -0.05403   0.07297   0.09255   0.10360   0.10549
  Beta virt. eigenvalues --    0.11274   0.11586   0.12675   0.14367   0.15132
  Beta virt. eigenvalues --    0.17265   0.18699   0.20742   0.23793   0.25024

 Mulliken charges and spin densities:
               1          2
     1  C   -0.150508  -0.028592
     2  H    0.126874   0.001259
     3  H    0.130671   0.006531
     4  C   -0.285238   0.664313
     5  H    0.132390  -0.011851
     6  H    0.124995  -0.013192
     7  C   -0.054627  -0.003203
     8  H    0.068842   0.000536
     9  H    0.097683  -0.000839
    10  H    0.095696   0.002283
    11  O   -0.192438   0.023164
    12  O   -0.221812   0.400376
    13  H    0.210735  -0.074245
    14  C   -0.037963   0.007037
    15  C   -0.214333   0.027147
    16  H    0.169034  -0.000724
 Sum of Mulliken charges =  -0.00000   1.00000

 Dipole moment (field-independent basis, Debye):
    X=             -0.4448    Y=             -0.9918    Z=              1.6199  Tot=              1.9508
 Quadrupole moment (field-independent basis, Debye-Ang):
   XX=            -40.9467   YY=            -42.6602   ZZ=            -44.0714
   XY=             -4.0281   XZ=              1.8778   YZ=             -0.3575

  Exact polarizability: 123.200  -0.751  61.971  -8.744   0.985  55.776
 Approx polarizability: 107.568   4.868  72.377 -12.109   0.427  66.567

 ******    1 imaginary frequencies (negative Signs) ******

                      1                      2                      3
                      A                      A                      A
 Frequencies --  -1870.4096                32.2609                43.4474
 Red. masses --      1.1117                 3.4251                 2.5071
 Frc consts  --      2.2915                 0.0021                 0.0028
 IR Inten    --   1938.5443                 1.0625                 1.2402

                      4                      5                      6
                      A                      A                      A
 Frequencies --     85.1914               101.6404               155.6740
 Red. masses --      3.4840                 3.1575                 2.9001
 Frc consts  --      0.0149                 0.0192                 0.0414
 IR Inten    --      4.1749                 2.2568                 0.0820

                      7                      8                      9
                      A                      A                      A
 Frequencies --    199.3955               284.7637               336.5414
 Red. masses --      1.5327                 2.3997                 3.0838
 Frc consts  --      0.0359                 0.1146                 0.2058
 IR Inten    --      1.5070                 3.5486                 5.4880

                     10                     11                     12
                      A                      A                      A
 Frequencies --    447.0483               479.8361               532.7100
 Red. masses --      2.7950                 5.4475                 1.4440
 Frc consts  --      0.3291                 0.7390                 0.2414
 IR Inten    --      7.1637                 8.0819                 4.2911

                     13                     14                     15
                      A                      A                      A
 Frequencies --    598.0145               652.4399               658.8094
 Red. masses --      2.4944                 1.2384                 1.2472
 Frc consts  --      0.5256                 0.3106                 0.3189
 IR Inten    --      2.7474                44.7923                44.3771

                     16                     17                     18
                      A                      A                      A
 Frequencies --    801.5827               899.0894               914.7532
 Red. masses --      1.1570                 3.3452                 4.5617
 Frc consts  --      0.4380                 1.5932                 2.2490
 IR Inten    --      0.7631                 8.4250                 6.9051

                     19                     20                     21
                      A                      A                      A
 Frequencies --   1025.5236              1050.4356              1051.9132
 Red. masses --      1.4712                 4.9561                 3.2978
 Frc consts  --      0.9116                 3.2220                 2.1500
 IR Inten    --      5.2195                31.8339                27.0037

                     22                     23                     24
                      A                      A                      A
 Frequencies --   1109.1089              1147.9583              1177.9068
 Red. masses --      1.4363                 1.2775                 1.2716
 Frc consts  --      1.0410                 0.9919                 1.0395
 IR Inten    --      0.3713                 4.4747                 2.0400

                     25                     26                     27
                      A                      A                      A
 Frequencies --   1216.2180              1299.2255              1339.2066
 Red. masses --      1.5704                 1.1344                 1.4067
 Frc consts  --      1.3687                 1.1282                 1.4864
 IR Inten    --      5.0905                 0.7286                 4.2533

                     28                     29                     30
                      A                      A                      A
 Frequencies --   1456.3991              1460.8554              1473.2424
 Red. masses --      1.0955                 1.0977                 1.1336
 Frc consts  --      1.3690                 1.3802                 1.4496
 IR Inten    --      8.2781                 8.8218                 1.1788

                     31                     32                     33
                      A                      A                      A
 Frequencies --   1482.1352              1488.8868              1518.5621
 Red. masses --      1.0527                 1.0840                 1.0521
 Frc consts  --      1.3624                 1.4159                 1.4294
 IR Inten    --      7.1347                 8.0199                11.2211

                     34                     35                     36
                      A                      A                      A
 Frequencies --   2180.5234              3037.7879              3061.1911
 Red. masses --      6.1193                 1.0310                 1.0588
 Frc consts  --     17.1424                 5.6058                 5.8458
 IR Inten    --      2.5729                36.5636                 2.4932

                     37                     38                     39
                      A                      A                      A
 Frequencies --   3100.0208              3113.5151              3116.4390
 Red. masses --      1.1015                 1.0553                 1.0998
 Frc consts  --      6.2370                 6.0275                 6.2934
 IR Inten    --      2.5466                14.1266                37.3968

                     40                     41                     42
                      A                      A                      A
 Frequencies --   3148.1898              3202.4404              3490.0779
 Red. masses --      1.1052                 1.1132                 1.1549
 Frc consts  --      6.4537                 6.7262                 8.2886
 IR Inten    --     13.9284                 7.6868                69.6632

 - Thermochemistry -
 -------------------
 Temperature   298.150 Kelvin.  Pressure   1.00000 Atm.
 Atom     1 has atomic number  6 and mass  12.00000

 Molecular mass:   101.06025 amu.
 Principal axes and moments of inertia in atomic units:
                           1         2         3
     Eigenvalues --   291.085701947.083362052.14369
           X            0.99984  -0.01528   0.00895
           Y            0.01541   0.99978  -0.01451
           Z           -0.00873   0.01464   0.99985
 This molecule is an asymmetric top.
 Rotational symmetry number  1.
 Rotational temperatures (Kelvin)      0.29755     0.04448     0.04221
 Rotational constants (GHZ):           6.20003     0.92689     0.87944
    1 imaginary frequencies ignored.
 Zero-point vibrational energy     322818.0 (Joules/Mol)
                                   77.15536 (Kcal/Mol)
 Warning -- explicit consideration of  12 degrees of freedom as
           vibrations may cause significant error
 Vibrational temperatures:     46.42    62.51   122.57   146.24   223.98
          (Kelvin)            286.89   409.71   484.21   643.20   690.38
                              766.45   860.41   938.72   947.88  1153.30
                             1293.59  1316.13  1475.50  1511.34  1513.47
                             1595.76  1651.66  1694.75  1749.87  1869.30
                             1926.82  2095.43  2101.85  2119.67  2132.46
                             2142.18  2184.87  3137.29  4370.70  4404.37
                             4460.24  4479.65  4483.86  4529.54  4607.60
                             5021.44

 Zero-point correction=                           0.122955 (Hartree/Particle)
 Thermal correction to Energy=                    0.132555
 Thermal correction to Enthalpy=                  0.133499
 Thermal correction to Gibbs Free Energy=         0.086257
 Sum of electronic and zero-point Energies=           -345.876333
 Sum of electronic and thermal Energies=              -345.866733
 Sum of electronic and thermal Enthalpies=            -345.865788
 Sum of electronic and thermal Free Energies=         -345.913030

                     E (Thermal)             CV                S
                      KCal/Mol        Cal/Mol-Kelvin    Cal/Mol-Kelvin
 Total                   83.180             31.907             99.429
 Electronic               0.000              0.000              1.377
 Translational            0.889              2.981             39.749
 Rotational               0.889              2.981             28.544
 Vibrational             81.402             25.946             29.759
 Vibration     1          0.594              1.983              5.685
 Vibration     2          0.595              1.980              5.095
 Vibration     3          0.601              1.959              3.768
 Vibration     4          0.604              1.948              3.423
 Vibration     5          0.620              1.896              2.602
 Vibration     6          0.638              1.841              2.139
 Vibration     7          0.683              1.702              1.505
 Vibration     8          0.717              1.603              1.228
 Vibration     9          0.806              1.367              0.805
 Vibration    10          0.836              1.295              0.711
 Vibration    11          0.888              1.178              0.581
 Vibration    12          0.956              1.036              0.453

 Optimization completed.
    -- Stationary point found.

 1\1\GINC-N142\Freq\UB2PLYPD3-FC\CC-pVTZ\C5H9O2(2)\ROOT\24-Jun-2019\0\\
 #N Geom=AllCheck Guess=TCheck SCRF=Check GenChk UB2PLYPD3(FC)/CC-pVTZ
 Freq\\Title Card Required\\0,2\C,-1.2827408576,0.2607888157,0.49798150
 33\H,-1.4004074917,0.3582612878,1.5770597228\H,-0.5569595459,1.0162741
 909,0.1932474177\C,-0.7625144445,-1.1169032129,0.1557550467\H,-1.24990
 56162,-1.9477684107,0.6541649181\H,-0.5749192969,-1.295159056,-0.89757
 51194\C,2.7350857872,0.0022140053,-0.4757499576\H,2.1090689164,-0.4262
 552911,-1.2599754819\H,3.1139093439,0.9718529168,-0.7918052139\H,3.560

 Normal termination of Gaussian 16 at Mon Jun 24 17:02:16 2019.
