 Gaussian 16, Revision B.01,
 Gaussian 16:  ES64L-G16RevB.01 20-Dec-2017

 ----------------------------------------------------------------------
 # opt=(calcfc,ts,noeigentest,maxcyc=500) freq=noraman uB2PLYPD3/cc-pvt
 z
 ----------------------------------------------------------------------

 -------------------
 Title Card Required
 -------------------
 Symbolic Z-matrix:
 Charge =  0 Multiplicity = 2

 SCF Done:  E(UB2PLYPD3) =  -345.569693028     A.U. after   26 cycles
 E2(B2PLYPD3) =    -0.4309661390D+00 E(B2PLYPD3) =    -0.34600065916675D+03
 E2(B2PLYPD3) =    -0.4309661390D+00 E(B2PLYPD3) =    -0.34600065916675D+03
 SCF Done:  E(UB2PLYPD3) =  -345.576216722     A.U. after   23 cycles
 E2(B2PLYPD3) =    -0.4299475032D+00 E(B2PLYPD3) =    -0.34600616422468D+03
 SCF Done:  E(UB2PLYPD3) =  -345.583369056     A.U. after   22 cycles
 E2(B2PLYPD3) =    -0.4273271524D+00 E(B2PLYPD3) =    -0.34601069620832D+03
 SCF Done:  E(UB2PLYPD3) =  -345.587895893     A.U. after   22 cycles
 E2(B2PLYPD3) =    -0.4250101696D+00 E(B2PLYPD3) =    -0.34601290606305D+03
 SCF Done:  E(UB2PLYPD3) =  -345.568247157     A.U. after   25 cycles
 E2(B2PLYPD3) =    -0.4287935612D+00 E(B2PLYPD3) =    -0.34599704071787D+03
 SCF Done:  E(UB2PLYPD3) =  -345.577242351     A.U. after   21 cycles
 E2(B2PLYPD3) =    -0.4282087625D+00 E(B2PLYPD3) =    -0.34600545111313D+03
 SCF Done:  E(UB2PLYPD3) =  -345.581006476     A.U. after   21 cycles
 E2(B2PLYPD3) =    -0.4299764973D+00 E(B2PLYPD3) =    -0.34601098297288D+03
 SCF Done:  E(UB2PLYPD3) =  -345.584784728     A.U. after   20 cycles
 E2(B2PLYPD3) =    -0.4280801629D+00 E(B2PLYPD3) =    -0.34601286489070D+03
 SCF Done:  E(UB2PLYPD3) =  -345.585545633     A.U. after   19 cycles
 E2(B2PLYPD3) =    -0.4274812860D+00 E(B2PLYPD3) =    -0.34601302691924D+03
 SCF Done:  E(UB2PLYPD3) =  -345.588036883     A.U. after   20 cycles
 E2(B2PLYPD3) =    -0.4256680765D+00 E(B2PLYPD3) =    -0.34601370495971D+03
 E2(B2PLYPD3) =    -0.4271648593D+00 E(B2PLYPD3) =    -0.34601261639018D+03
 E2(B2PLYPD3) =    -0.4295322961D+00 E(B2PLYPD3) =    -0.34601290240609D+03
 SCF Done:  E(UB2PLYPD3) =  -345.585295850     A.U. after   21 cycles
 E2(B2PLYPD3) =    -0.4278188239D+00 E(B2PLYPD3) =    -0.34601311467408D+03
 SCF Done:  E(UB2PLYPD3) =  -345.584007219     A.U. after   20 cycles
 E2(B2PLYPD3) =    -0.4292252118D+00 E(B2PLYPD3) =    -0.34601323243040D+03
 SCF Done:  E(UB2PLYPD3) =  -345.584556086     A.U. after   19 cycles
 E2(B2PLYPD3) =    -0.4286659059D+00 E(B2PLYPD3) =    -0.34601322199225D+03
 SCF Done:  E(UB2PLYPD3) =  -345.584459210     A.U. after   17 cycles
 E2(B2PLYPD3) =    -0.4287654915D+00 E(B2PLYPD3) =    -0.34601322470169D+03
 SCF Done:  E(UB2PLYPD3) =  -345.584520344     A.U. after   17 cycles
 E2(B2PLYPD3) =    -0.4287070221D+00 E(B2PLYPD3) =    -0.34601322736579D+03
 SCF Done:  E(UB2PLYPD3) =  -345.584476209     A.U. after   16 cycles
 E2(B2PLYPD3) =    -0.4287514504D+00 E(B2PLYPD3) =    -0.34601322765972D+03
 SCF Done:  E(UB2PLYPD3) =  -345.584465269     A.U. after   10 cycles
 E2(B2PLYPD3) =    -0.4287624183D+00 E(B2PLYPD3) =    -0.34601322768768D+03
 SCF Done:  E(UB2PLYPD3) =  -345.584460459     A.U. after   10 cycles
 E2(B2PLYPD3) =    -0.4287673396D+00 E(B2PLYPD3) =    -0.34601322779845D+03
 SCF Done:  E(UB2PLYPD3) =  -345.584448460     A.U. after   10 cycles
 E2(B2PLYPD3) =    -0.4287792921D+00 E(B2PLYPD3) =    -0.34601322775221D+03
 Optimization completed.
    -- Stationary point found.
 Normal termination of Gaussian 16 at Sun Jun  2 19:47:25 2019.

 ----------------------------------------------------------------------
 #N Geom=AllCheck Guess=TCheck SCRF=Check GenChk UB2PLYPD3(FC)/CC-pVTZ
 Freq
 ----------------------------------------------------------------------

 Structure from the checkpoint file:  "/localscratch/339753/Gau-20839.chk"
 -------------------
 Title Card Required
 -------------------
 Charge =  0 Multiplicity = 2

                         Standard orientation:
 ---------------------------------------------------------------------
 Center     Atomic      Atomic             Coordinates (Angstroms)
 Number     Number       Type             X           Y           Z
 ---------------------------------------------------------------------
      1          6           0        0.406710    1.655849   -0.227060
      2          6           0        1.498676    0.924357   -0.312647
      3          1           0        0.181768    2.657890   -0.558798
      4          6           0       -2.273073   -0.763790   -0.842017
      5          1           0       -1.674860   -0.231416   -1.583720
      6          1           0       -2.320061   -1.821222   -1.094048
      7          1           0       -3.275156   -0.340888   -0.796944
      8          8           0       -1.650952   -0.713838    0.432944
      9          8           0       -1.659361    0.636085    0.864028
     10          1           0       -0.753305    1.065666    0.422257
     11          1           0        2.369823    1.366701   -0.798651
     12          6           0        1.661171   -0.435950    0.190238
     13          6           0        2.803534   -1.112810    0.076750
     14          1           0        0.799168   -0.885522    0.663520
     15          1           0        2.900871   -2.117965    0.457780
     16          1           0        3.672147   -0.677166   -0.398752
 ---------------------------------------------------------------------

 SCF Done:  E(UB2PLYPD3) =  -345.584448460     A.U. after    1 cycles
 E2(B2PLYPD3) =    -0.4287793228D+00 E(B2PLYPD3) =    -0.34601322778285D+03
 E2(B2PLYPD3) =    -0.4287793228D+00 E(B2PLYPD3) =    -0.34601322778285D+03

 The electronic state is 2-A.
 Alpha  occ. eigenvalues --  -19.78714 -19.78536 -10.66042 -10.65528 -10.64281
 Alpha  occ. eigenvalues --  -10.63100 -10.62060  -1.27385  -1.02846  -0.94470
 Alpha  occ. eigenvalues --   -0.86579  -0.77942  -0.71255  -0.65810  -0.60476
 Alpha  occ. eigenvalues --   -0.57180  -0.55630  -0.54543  -0.53274  -0.49393
 Alpha  occ. eigenvalues --   -0.48654  -0.44093  -0.43812  -0.39653  -0.37663
 Alpha  occ. eigenvalues --   -0.36545  -0.31689  -0.29578
 Alpha virt. eigenvalues --    0.01137   0.08674   0.09506   0.10394   0.11238
 Alpha virt. eigenvalues --    0.12681   0.13182   0.14988   0.16209   0.16606
 Alpha virt. eigenvalues --    0.18656   0.19822   0.24259   0.26349   0.28603

  Beta  occ. eigenvalues --  -19.78622 -19.77270 -10.66046 -10.64583 -10.63791
  Beta  occ. eigenvalues --  -10.62874 -10.62262  -1.25880  -1.00556  -0.93675
  Beta  occ. eigenvalues --   -0.85158  -0.77596  -0.69638  -0.63839  -0.58150
  Beta  occ. eigenvalues --   -0.56329  -0.54707  -0.54231  -0.51999  -0.48189
  Beta  occ. eigenvalues --   -0.46749  -0.43592  -0.43050  -0.39482  -0.36179
  Beta  occ. eigenvalues --   -0.34113  -0.28807
  Beta virt. eigenvalues --   -0.05925   0.01875   0.08841   0.09582   0.10551
  Beta virt. eigenvalues --    0.11420   0.13006   0.13629   0.15048   0.16296
  Beta virt. eigenvalues --    0.16751   0.19209   0.20190   0.24679   0.26982

 Mulliken charges and spin densities:
               1          2
     1  C   -0.282880   0.842887
     2  C   -0.066230  -0.174701
     3  H    0.155379   0.020747
     4  C   -0.058437  -0.001487
     5  H    0.072949  -0.000435
     6  H    0.095809  -0.000545
     7  H    0.093457   0.001712
     8  O   -0.194443   0.017456
     9  O   -0.224126   0.317819
    10  H    0.227801  -0.070121
    11  H    0.139426   0.058100
    12  C   -0.069468   0.106440
    13  C   -0.307609  -0.125870
    14  H    0.165167  -0.002606
    15  H    0.132678   0.005714
    16  H    0.120528   0.004889
 Sum of Mulliken charges =  -0.00000   1.00000

 Dipole moment (field-independent basis, Debye):
    X=              1.2819    Y=              0.2903    Z=             -2.4068  Tot=              2.7423
 Quadrupole moment (field-independent basis, Debye-Ang):
   XX=            -40.2625   YY=            -39.3873   ZZ=            -46.1153
   XY=              1.2702   XZ=              3.0480   YZ=             -1.3564

  Exact polarizability: 115.137  -6.335  84.660  -4.862  -3.739  51.679
 Approx polarizability: 104.365 -15.913  96.361  -6.509  -2.744  62.564

 ******    1 imaginary frequencies (negative Signs) ******

                      1                      2                      3
                      A                      A                      A
 Frequencies --  -1440.8254                26.0001                70.5295
 Red. masses --      1.1873                 3.6074                 3.2090
 Frc consts  --      1.4522                 0.0014                 0.0094
 IR Inten    --   1576.4791                 2.6143                 1.2939

                      4                      5                      6
                      A                      A                      A
 Frequencies --     96.1722               130.3234               164.1950
 Red. masses --      3.6685                 2.0951                 2.0712
 Frc consts  --      0.0200                 0.0210                 0.0329
 IR Inten    --      3.7946                 0.6422                 0.7137

                      7                      8                      9
                      A                      A                      A
 Frequencies --    235.0708               256.9052               347.2336
 Red. masses --      2.0002                 1.9335                 2.8216
 Frc consts  --      0.0651                 0.0752                 0.2004
 IR Inten    --      0.7056                 0.4278                 5.1939

                     10                     11                     12
                      A                      A                      A
 Frequencies --    464.4587               534.0176               575.5205
 Red. masses --      3.4669                 1.9313                 1.9116
 Frc consts  --      0.4406                 0.3245                 0.3731
 IR Inten    --      6.0568                 1.7381                20.9303

                     13                     14                     15
                      A                      A                      A
 Frequencies --    585.3404               720.2010               854.3512
 Red. masses --      1.8929                 1.2396                 1.3487
 Frc consts  --      0.3821                 0.3788                 0.5800
 IR Inten    --     56.9735                 2.8934                32.5642

                     16                     17                     18
                      A                      A                      A
 Frequencies --    889.6304               905.8559               920.2760
 Red. masses --      1.8691                 1.9488                 2.3616
 Frc consts  --      0.8715                 0.9422                 1.1784
 IR Inten    --      9.3759                 1.8647                15.2316

                     19                     20                     21
                      A                      A                      A
 Frequencies --    964.4690              1026.2568              1052.6298
 Red. masses --      1.3596                 1.3519                 1.1287
 Frc consts  --      0.7452                 0.8389                 0.7369
 IR Inten    --     40.8042                15.7791                22.9340

                     22                     23                     24
                      A                      A                      A
 Frequencies --   1067.1041              1179.2449              1216.0403
 Red. masses --      3.7871                 1.2716                 1.6538
 Frc consts  --      2.5408                 1.0418                 1.4409
 IR Inten    --     11.7923                 1.6718                 3.8855

                     25                     26                     27
                      A                      A                      A
 Frequencies --   1223.3523              1305.7132              1345.6638
 Red. masses --      1.7891                 1.3503                 1.2738
 Frc consts  --      1.5776                 1.3564                 1.3590
 IR Inten    --      2.8652                 9.6595                 0.2154

                     28                     29                     30
                      A                      A                      A
 Frequencies --   1456.1872              1459.5159              1466.3439
 Red. masses --      1.1368                 1.1365                 1.1802
 Frc consts  --      1.4203                 1.4263                 1.4951
 IR Inten    --      5.0968                 9.0918                 6.8522

                     31                     32                     33
                      A                      A                      A
 Frequencies --   1481.3441              1518.4003              1666.8562
 Red. masses --      1.0514                 1.0512                 4.7827
 Frc consts  --      1.3594                 1.4279                 7.8292
 IR Inten    --      7.9809                 9.2479                10.9822

                     34                     35                     36
                      A                      A                      A
 Frequencies --   1787.7026              3034.4918              3075.0416
 Red. masses --      6.1585                 1.0314                 1.0833
 Frc consts  --     11.5962                 5.5955                 6.0353
 IR Inten    --      0.4855                31.1149                 4.4752

                     37                     38                     39
                      A                      A                      A
 Frequencies --   3113.0299              3145.9588              3160.4691
 Red. masses --      1.1029                 1.1049                 1.0609
 Frc consts  --      6.2974                 6.4426                 6.2433
 IR Inten    --     43.5108                13.2372                 5.9275

                     40                     41                     42
                      A                      A                      A
 Frequencies --   3202.0592              3229.5981              3253.2422
 Red. masses --      1.0928                 1.1004                 1.1152
 Frc consts  --      6.6014                 6.7621                 6.9542
 IR Inten    --      4.0278                 0.9300                 6.6465

 - Thermochemistry -
 -------------------
 Temperature   298.150 Kelvin.  Pressure   1.00000 Atm.
 Atom     1 has atomic number  6 and mass  12.00000

 Molecular mass:   101.06025 amu.
 Principal axes and moments of inertia in atomic units:
                           1         2         3
     Eigenvalues --   475.581401378.248921626.51709
           X            0.99984  -0.00253   0.01789
           Y            0.00272   0.99994  -0.01083
           Z           -0.01786   0.01088   0.99978
 This molecule is an asymmetric top.
 Rotational symmetry number  1.
 Warning -- assumption of classical behavior for rotation
           may cause significant error
 Rotational temperatures (Kelvin)      0.18212     0.06284     0.05325
 Rotational constants (GHZ):           3.79481     1.30945     1.10957
    1 imaginary frequencies ignored.
 Zero-point vibrational energy     324228.6 (Joules/Mol)
                                   77.49251 (Kcal/Mol)
 Warning -- explicit consideration of  12 degrees of freedom as
           vibrations may cause significant error
 Vibrational temperatures:     37.41   101.48   138.37   187.51   236.24
          (Kelvin)            338.21   369.63   499.59   668.25   768.33
                              828.05   842.17  1036.21  1229.22  1279.98
                             1303.32  1324.07  1387.66  1476.55  1514.50
                             1535.32  1696.67  1749.61  1760.13  1878.63
                             1936.11  2095.13  2099.92  2109.74  2131.32
                             2184.64  2398.23  2572.11  4365.96  4424.30
                             4478.96  4526.33  4547.21  4607.05  4646.67
                             4680.69

 Zero-point correction=                           0.123492 (Hartree/Particle)
 Thermal correction to Energy=                    0.132748
 Thermal correction to Enthalpy=                  0.133692
 Thermal correction to Gibbs Free Energy=         0.087483
 Sum of electronic and zero-point Energies=           -345.889736
 Sum of electronic and thermal Energies=              -345.880480
 Sum of electronic and thermal Enthalpies=            -345.879536
 Sum of electronic and thermal Free Energies=         -345.925745

                     E (Thermal)             CV                S
                      KCal/Mol        Cal/Mol-Kelvin    Cal/Mol-Kelvin
 Total                   83.301             31.034             97.256
 Electronic               0.000              0.000              1.377
 Translational            0.889              2.981             39.749
 Rotational               0.889              2.981             28.457
 Vibrational             81.523             25.072             27.672
 Vibration     1          0.593              1.985              6.113
 Vibration     2          0.598              1.968              4.139
 Vibration     3          0.603              1.952              3.530
 Vibration     4          0.612              1.923              2.941
 Vibration     5          0.623              1.886              2.501
 Vibration     6          0.655              1.787              1.840
 Vibration     7          0.666              1.751              1.683
 Vibration     8          0.725              1.581              1.179
 Vibration     9          0.822              1.329              0.753
 Vibration    10          0.889              1.175              0.578
 Vibration    11          0.932              1.084              0.494
 Vibration    12          0.942              1.063              0.476

                           ! Non-Optimized Parameters !
 Normal termination of Gaussian 16 at Sun Jun  2 21:11:05 2019.
