 Gaussian 16, Revision B.01,
 Gaussian 16:  ES64L-G16RevB.01 20-Dec-2017

 ----------------------------------------------------------------------
 # opt=(calcfc,ts,noeigentest,maxcyc=500) freq=noraman uB2PLYPD3/cc-pvt
 z
 ----------------------------------------------------------------------

 -------------------
 Title Card Required
 -------------------
 Symbolic Z-matrix:
 Charge =  0 Multiplicity = 2

 SCF Done:  E(UB2PLYPD3) =  -346.781143907     A.U. after   24 cycles
 E2(B2PLYPD3) =    -0.4401584700D+00 E(B2PLYPD3) =    -0.34722130237704D+03
 E2(B2PLYPD3) =    -0.4401584700D+00 E(B2PLYPD3) =    -0.34722130237704D+03
 SCF Done:  E(UB2PLYPD3) =  -346.787515469     A.U. after   21 cycles
 E2(B2PLYPD3) =    -0.4395789057D+00 E(B2PLYPD3) =    -0.34722709437522D+03
 SCF Done:  E(UB2PLYPD3) =  -346.795761241     A.U. after   20 cycles
 E2(B2PLYPD3) =    -0.4370039656D+00 E(B2PLYPD3) =    -0.34723276520617D+03
 SCF Done:  E(UB2PLYPD3) =  -346.800081822     A.U. after   16 cycles
 E2(B2PLYPD3) =    -0.4364644418D+00 E(B2PLYPD3) =    -0.34723654626400D+03
 SCF Done:  E(UB2PLYPD3) =  -346.799923634     A.U. after   20 cycles
 E2(B2PLYPD3) =    -0.4354760560D+00 E(B2PLYPD3) =    -0.34723539969023D+03
 SCF Done:  E(UB2PLYPD3) =  -346.797417066     A.U. after   21 cycles
 E2(B2PLYPD3) =    -0.4386152567D+00 E(B2PLYPD3) =    -0.34723603232270D+03
 SCF Done:  E(UB2PLYPD3) =  -346.796894833     A.U. after   19 cycles
 E2(B2PLYPD3) =    -0.4402392182D+00 E(B2PLYPD3) =    -0.34723713405148D+03
 SCF Done:  E(UB2PLYPD3) =  -346.795980783     A.U. after   19 cycles
 E2(B2PLYPD3) =    -0.4411167714D+00 E(B2PLYPD3) =    -0.34723709755388D+03
 SCF Done:  E(UB2PLYPD3) =  -346.797352220     A.U. after   19 cycles
 E2(B2PLYPD3) =    -0.4396014090D+00 E(B2PLYPD3) =    -0.34723695362890D+03
 SCF Done:  E(UB2PLYPD3) =  -346.797334328     A.U. after   18 cycles
 E2(B2PLYPD3) =    -0.4396700631D+00 E(B2PLYPD3) =    -0.34723700439132D+03
 E2(B2PLYPD3) =    -0.4394361727D+00 E(B2PLYPD3) =    -0.34723719164036D+03
 E2(B2PLYPD3) =    -0.4395330886D+00 E(B2PLYPD3) =    -0.34723721112239D+03
 E2(B2PLYPD3) =    -0.4394457324D+00 E(B2PLYPD3) =    -0.34723722384876D+03
 E2(B2PLYPD3) =    -0.4394461912D+00 E(B2PLYPD3) =    -0.34723722680947D+03
 E2(B2PLYPD3) =    -0.4393519458D+00 E(B2PLYPD3) =    -0.34723722185102D+03
 E2(B2PLYPD3) =    -0.4395965336D+00 E(B2PLYPD3) =    -0.34723718036458D+03
 E2(B2PLYPD3) =    -0.4395746180D+00 E(B2PLYPD3) =    -0.34723653606398D+03
 E2(B2PLYPD3) =    -0.4391882012D+00 E(B2PLYPD3) =    -0.34723484179925D+03
 E2(B2PLYPD3) =    -0.4392203129D+00 E(B2PLYPD3) =    -0.34723665049855D+03
 SCF Done:  E(UB2PLYPD3) =  -346.797878820     A.U. after   18 cycles
 E2(B2PLYPD3) =    -0.4392432263D+00 E(B2PLYPD3) =    -0.34723712204603D+03
 SCF Done:  E(UB2PLYPD3) =  -346.797481454     A.U. after   17 cycles
 E2(B2PLYPD3) =    -0.4395819398D+00 E(B2PLYPD3) =    -0.34723706339398D+03
 SCF Done:  E(UB2PLYPD3) =  -346.797860184     A.U. after   14 cycles
 E2(B2PLYPD3) =    -0.4393580035D+00 E(B2PLYPD3) =    -0.34723721818722D+03
 SCF Done:  E(UB2PLYPD3) =  -346.797607756     A.U. after   18 cycles
 E2(B2PLYPD3) =    -0.4394900425D+00 E(B2PLYPD3) =    -0.34723709779866D+03
 SCF Done:  E(UB2PLYPD3) =  -346.797880957     A.U. after   17 cycles
 E2(B2PLYPD3) =    -0.4393450220D+00 E(B2PLYPD3) =    -0.34723722597907D+03
 SCF Done:  E(UB2PLYPD3) =  -346.797868047     A.U. after   10 cycles
 E2(B2PLYPD3) =    -0.4393588835D+00 E(B2PLYPD3) =    -0.34723722693066D+03
 SCF Done:  E(UB2PLYPD3) =  -346.797867662     A.U. after    9 cycles
 E2(B2PLYPD3) =    -0.4393593892D+00 E(B2PLYPD3) =    -0.34723722705078D+03
 SCF Done:  E(UB2PLYPD3) =  -346.797868184     A.U. after    7 cycles
 E2(B2PLYPD3) =    -0.4393589120D+00 E(B2PLYPD3) =    -0.34723722709602D+03
 SCF Done:  E(UB2PLYPD3) =  -346.797866663     A.U. after    7 cycles
 E2(B2PLYPD3) =    -0.4393604472D+00 E(B2PLYPD3) =    -0.34723722711042D+03
 Optimization completed.
    -- Stationary point found.
 Normal termination of Gaussian 16 at Tue Jun  4 20:22:52 2019.

 ----------------------------------------------------------------------
 #N Geom=AllCheck Guess=TCheck SCRF=Check GenChk UB2PLYPD3(FC)/CC-pVTZ
 Freq
 ----------------------------------------------------------------------

 Structure from the checkpoint file:  "/localscratch/339753/Gau-13538.chk"
 -------------------
 Title Card Required
 -------------------
 Charge =  0 Multiplicity = 2

                         Standard orientation:
 ---------------------------------------------------------------------
 Center     Atomic      Atomic             Coordinates (Angstroms)
 Number     Number       Type             X           Y           Z
 ---------------------------------------------------------------------
      1          6           0        0.424536    1.668034   -0.475585
      2          6           0        1.545645    1.000520   -0.330970
      3          1           0        0.154684    2.509567   -1.095625
      4          6           0       -2.329588   -0.717000   -0.722928
      5          1           0       -1.857580   -0.186268   -1.551758
      6          1           0       -2.376879   -1.781394   -0.944625
      7          1           0       -3.329642   -0.323136   -0.549371
      8          8           0       -1.539972   -0.617515    0.451743
      9          8           0       -1.532169    0.742623    0.850202
     10          1           0       -0.686414    1.181527    0.285371
     11          6           0        1.778567   -0.168643    0.583331
     12          1           0        0.930161   -0.280710    1.253604
     13          1           0        2.657837    0.041774    1.195511
     14          1           0        2.394533    1.301949   -0.948328
     15          6           0        2.001576   -1.464112   -0.199282
     16          1           0        1.111194   -1.717866   -0.771409
     17          1           0        2.836760   -1.369634   -0.893444
     18          1           0        2.218055   -2.289467    0.477121
 ---------------------------------------------------------------------

 SCF Done:  E(UB2PLYPD3) =  -346.797866663     A.U. after    1 cycles
 E2(B2PLYPD3) =    -0.4393604344D+00 E(B2PLYPD3) =    -0.34723722709764D+03
 E2(B2PLYPD3) =    -0.4393604344D+00 E(B2PLYPD3) =    -0.34723722709764D+03

 The electronic state is 2-A.
 Alpha  occ. eigenvalues --  -19.78446 -19.78301 -10.65914 -10.64501 -10.63529
 Alpha  occ. eigenvalues --  -10.61876 -10.60504  -1.27088  -1.02511  -0.93334
 Alpha  occ. eigenvalues --   -0.85308  -0.77724  -0.73272  -0.65825  -0.60109
 Alpha  occ. eigenvalues --   -0.56784  -0.55428  -0.54245  -0.51333  -0.50312
 Alpha  occ. eigenvalues --   -0.48492  -0.44725  -0.43845  -0.42506  -0.40874
 Alpha  occ. eigenvalues --   -0.37157  -0.36430  -0.32958  -0.30949
 Alpha virt. eigenvalues --    0.05297   0.07863   0.09736   0.10448   0.12701
 Alpha virt. eigenvalues --    0.13134   0.13797   0.14939   0.16684   0.16883
 Alpha virt. eigenvalues --    0.17722   0.18281   0.20347   0.23179   0.25594

  Beta  occ. eigenvalues --  -19.78353 -19.76966 -10.65918 -10.63777 -10.62908
  Beta  occ. eigenvalues --  -10.61790 -10.60524  -1.25524  -1.00110  -0.92529
  Beta  occ. eigenvalues --   -0.83903  -0.77375  -0.72282  -0.63225  -0.57669
  Beta  occ. eigenvalues --   -0.56003  -0.54464  -0.53857  -0.50752  -0.48957
  Beta  occ. eigenvalues --   -0.46405  -0.44569  -0.43220  -0.41788  -0.40698
  Beta  occ. eigenvalues --   -0.35898  -0.33849  -0.31878
  Beta virt. eigenvalues --   -0.05455   0.05970   0.08040   0.09870   0.10740
  Beta virt. eigenvalues --    0.12814   0.13644   0.14084   0.14969   0.16786
  Beta virt. eigenvalues --    0.16955   0.18003   0.18467   0.20773   0.23255

 Mulliken charges and spin densities:
               1          2
     1  C   -0.290321   0.765872
     2  C   -0.093953  -0.152064
     3  H    0.158025   0.024976
     4  C   -0.061615  -0.001692
     5  H    0.071378  -0.000087
     6  H    0.095070  -0.000622
     7  H    0.097212   0.001774
     8  O   -0.195964   0.016983
     9  O   -0.228437   0.335655
    10  H    0.227111  -0.070030
    11  C   -0.150598   0.026937
    12  H    0.123548   0.000435
    13  H    0.105315  -0.003576
    14  H    0.139920   0.058800
    15  C   -0.290239  -0.003156
    16  H    0.104123   0.000451
    17  H    0.087072   0.000278
    18  H    0.102352  -0.000934
 Sum of Mulliken charges =  -0.00000   1.00000

 Dipole moment (field-independent basis, Debye):
    X=              1.1421    Y=             -0.0094    Z=             -2.2717  Tot=              2.5427
 Quadrupole moment (field-independent basis, Debye-Ang):
   XX=            -41.3482   YY=            -43.2402   ZZ=            -45.8566
   XY=              1.8232   XZ=              3.8285   YZ=             -1.6131

  Exact polarizability: 100.850   4.911  79.566  -3.027  -4.070  61.923
 Approx polarizability:  93.103  -1.117  86.109  -3.420  -3.508  73.222

 ******    1 imaginary frequencies (negative Signs) ******

                      1                      2                      3
                      A                      A                      A
 Frequencies --  -1536.2615                31.4208                49.0212
 Red. masses --      1.1546                 3.4323                 3.0966
 Frc consts  --      1.6055                 0.0020                 0.0044
 IR Inten    --   1384.0500                 2.6309                 1.2954

                      4                      5                      6
                      A                      A                      A
 Frequencies --     77.1588               112.5334               151.2946
 Red. masses --      3.0590                 2.5528                 2.1297
 Frc consts  --      0.0107                 0.0190                 0.0287
 IR Inten    --      2.5223                 1.8979                 0.7213

                      7                      8                      9
                      A                      A                      A
 Frequencies --    213.1176               230.6010               275.4391
 Red. masses --      1.8626                 1.1521                 1.8872
 Frc consts  --      0.0498                 0.0361                 0.0844
 IR Inten    --      0.6274                 0.3146                 0.5501

                     10                     11                     12
                      A                      A                      A
 Frequencies --    381.5231               458.8909               467.1061
 Red. masses --      2.0421                 2.7146                 3.5249
 Frc consts  --      0.1751                 0.3368                 0.4531
 IR Inten    --      4.9950                 5.7969                 3.5784

                     13                     14                     15
                      A                      A                      A
 Frequencies --    590.7243               663.8468               799.3287
 Red. masses --      2.7118                 1.2685                 1.1456
 Frc consts  --      0.5575                 0.3294                 0.4312
 IR Inten    --     25.3970                40.9006                 4.0740

                     16                     17                     18
                      A                      A                      A
 Frequencies --    846.7610               854.0832               908.1643
 Red. masses --      1.3655                 2.0039                 4.3229
 Frc consts  --      0.5769                 0.8612                 2.1006
 IR Inten    --      4.5714                 3.4723                12.4740

                     19                     20                     21
                      A                      A                      A
 Frequencies --    923.9633              1022.5384              1037.4115
 Red. masses --      1.2602                 1.5512                 1.6864
 Frc consts  --      0.6339                 0.9556                 1.0694
 IR Inten    --     14.5704                15.8673                 4.6187

                     22                     23                     24
                      A                      A                      A
 Frequencies --   1060.8598              1101.4368              1177.6157
 Red. masses --      5.1900                 1.7136                 1.2704
 Frc consts  --      3.4414                 1.2248                 1.0380
 IR Inten    --     20.9946                 5.9666                 1.8592

                     25                     26                     27
                      A                      A                      A
 Frequencies --   1192.0689              1217.6314              1288.8116
 Red. masses --      1.7863                 1.5821                 1.3063
 Frc consts  --      1.4956                 1.3820                 1.2784
 IR Inten    --      0.3634                 5.0476                 5.7673

                     28                     29                     30
                      A                      A                      A
 Frequencies --   1314.1183              1366.0174              1415.8362
 Red. masses --      1.1924                 1.3970                 1.1001
 Frc consts  --      1.2133                 1.5359                 1.2993
 IR Inten    --      4.0446                 3.6348                17.1543

                     31                     32                     33
                      A                      A                      A
 Frequencies --   1417.6724              1457.7174              1481.3568
 Red. masses --      1.1993                 1.1458                 1.0507
 Frc consts  --      1.4201                 1.4345                 1.3584
 IR Inten    --      1.2640                 3.0554                 7.7063

                     34                     35                     36
                      A                      A                      A
 Frequencies --   1500.6401              1511.4523              1517.6461
 Red. masses --      1.0582                 1.0440                 1.0621
 Frc consts  --      1.4040                 1.4052                 1.4414
 IR Inten    --      3.5434                 6.9521                 7.8666

                     37                     38                     39
                      A                      A                      A
 Frequencies --   1518.9146              1696.1509              3033.6481
 Red. masses --      1.0589                 6.7512                 1.0311
 Frc consts  --      1.4393                11.4435                 5.5909
 IR Inten    --      5.1662                 3.9139                33.7285

                     40                     41                     42
                      A                      A                      A
 Frequencies --   3051.2811              3052.8186              3063.1927
 Red. masses --      1.0409                 1.0630                 1.0808
 Frc consts  --      5.7100                 5.8371                 5.9752
 IR Inten    --     23.6693                27.0336                 8.7631

                     43                     44                     45
                      A                      A                      A
 Frequencies --   3111.2483              3113.9576              3130.4865
 Red. masses --      1.1031                 1.0989                 1.0996
 Frc consts  --      6.2911                 6.2782                 6.3493
 IR Inten    --     41.9125                11.8513                26.4716

                     46                     47                     48
                      A                      A                      A
 Frequencies --   3138.8810              3143.3188              3222.4402
 Red. masses --      1.1002                 1.1048                 1.0995
 Frc consts  --      6.3864                 6.4313                 6.7269
 IR Inten    --     19.4726                14.3848                 0.2795

 - Thermochemistry -
 -------------------
 Temperature   298.150 Kelvin.  Pressure   1.00000 Atm.
 Atom     1 has atomic number  6 and mass  12.00000

 Molecular mass:   103.07590 amu.
 Principal axes and moments of inertia in atomic units:
                           1         2         3
     Eigenvalues --   554.853471236.778701506.58720
           X            0.99963  -0.01435   0.02307
           Y            0.01444   0.99989  -0.00402
           Z           -0.02301   0.00435   0.99973
 This molecule is an asymmetric top.
 Rotational symmetry number  1.
 Warning -- assumption of classical behavior for rotation
           may cause significant error
 Rotational temperatures (Kelvin)      0.15610     0.07003     0.05749
 Rotational constants (GHZ):           3.25264     1.45923     1.19790
    1 imaginary frequencies ignored.
 Zero-point vibrational energy     385150.6 (Joules/Mol)
                                   92.05320 (Kcal/Mol)
 Warning -- explicit consideration of  12 degrees of freedom as
           vibrations may cause significant error
 Vibrational temperatures:     45.21    70.53   111.01   161.91   217.68
          (Kelvin)            306.63   331.78   396.30   548.93   660.24
                              672.06   849.92   955.13  1150.06  1218.30
                             1228.84  1306.65  1329.38  1471.20  1492.60
                             1526.34  1584.72  1694.33  1715.12  1751.90
                             1854.31  1890.72  1965.39  2037.07  2039.71
                             2097.33  2131.34  2159.09  2174.64  2183.55
                             2185.38  2440.38  4364.74  4390.11  4392.33
                             4407.25  4476.39  4480.29  4504.07  4516.15
                             4522.53  4636.37

 Zero-point correction=                           0.146696 (Hartree/Particle)
 Thermal correction to Energy=                    0.156563
 Thermal correction to Enthalpy=                  0.157507
 Thermal correction to Gibbs Free Energy=         0.109855
 Sum of electronic and zero-point Energies=           -347.090531
 Sum of electronic and thermal Energies=              -347.080665
 Sum of electronic and thermal Enthalpies=            -347.079720
 Sum of electronic and thermal Free Energies=         -347.127372

                     E (Thermal)             CV                S
                      KCal/Mol        Cal/Mol-Kelvin    Cal/Mol-Kelvin
 Total                   98.244             32.953            100.291
 Electronic               0.000              0.000              1.377
 Translational            0.889              2.981             39.808
 Rotational               0.889              2.981             28.427
 Vibrational             96.467             26.992             30.678
 Vibration     1          0.594              1.983              5.738
 Vibration     2          0.595              1.978              4.856
 Vibration     3          0.599              1.964              3.962
 Vibration     4          0.607              1.939              3.225
 Vibration     5          0.619              1.901              2.656
 Vibration     6          0.644              1.821              2.017
 Vibration     7          0.652              1.794              1.874
 Vibration     8          0.677              1.719              1.562
 Vibration     9          0.751              1.510              1.033
 Vibration    10          0.817              1.341              0.769
 Vibration    11          0.824              1.323              0.746
 Vibration    12          0.948              1.052              0.466

 Optimization completed.
    -- Stationary point found.

 1\1\GINC-N58\Freq\UB2PLYPD3-FC\CC-pVTZ\C5H11O2(2)\ROOT\04-Jun-2019\0\\
 #N Geom=AllCheck Guess=TCheck SCRF=Check GenChk UB2PLYPD3(FC)/CC-pVTZ
 Freq\\Title Card Required\\0,2\C,-0.3010184795,0.7950961446,0.15805077
 54\C,-1.6092305517,0.6862770173,0.1687964067\H,0.3566460527,1.64922141
 27,0.099800501\C,1.0722664725,-1.386080378,2.7448094566\H,0.9408099272
 ,-0.3046976253,2.813789958\H,0.641428146,-1.867436036,3.6205923461\H,2
 .1305702079,-1.6284757066,2.6635896213\O,0.3510227574,-1.9101967878,1.
 6410195496\O,0.9419377418,-1.3974274269,0.4592028899\H,0.4219678474,-0

 Normal termination of Gaussian 16 at Tue Jun  4 22:23:43 2019.
