 Gaussian 16, Revision B.01,
 Gaussian 16:  ES64L-G16RevB.01 20-Dec-2017

 ----------------------------------------------------------------------
 # opt=(calcfc,ts,noeigentest,maxcyc=500,modredundant) uB2PLYPD3/cc-pvt
 z scf=maxcyc=500 nosymm
 ----------------------------------------------------------------------

 -------------------
 Title Card Required
 -------------------
 Symbolic Z-matrix:
 Charge =  0 Multiplicity = 2

 SCF Done:  E(UB2PLYPD3) =  -346.797896305     A.U. after   22 cycles
 E2(B2PLYPD3) =    -0.4390751156D+00 E(B2PLYPD3) =    -0.34723697142058D+03
 E2(B2PLYPD3) =    -0.4390751156D+00 E(B2PLYPD3) =    -0.34723697142058D+03

  Exact polarizability: 110.044  -3.638  76.701  -1.259  -6.311  60.241
 Approx polarizability:  92.611   2.079  85.330  -1.883 -10.868  75.041

 Optimization completed.
    -- Stationary point found.
 SCF Done:  E(UB2PLYPD3) =  -346.797542053     A.U. after   17 cycles
 E2(B2PLYPD3) =    -0.4392179397D+00 E(B2PLYPD3) =    -0.34723675999267D+03
 SCF Done:  E(UB2PLYPD3) =  -346.797784110     A.U. after   14 cycles
 E2(B2PLYPD3) =    -0.4390477904D+00 E(B2PLYPD3) =    -0.34723683190038D+03
 SCF Done:  E(UB2PLYPD3) =  -346.797739056     A.U. after   11 cycles
 E2(B2PLYPD3) =    -0.4390969650D+00 E(B2PLYPD3) =    -0.34723683602108D+03
 SCF Done:  E(UB2PLYPD3) =  -346.797738775     A.U. after    8 cycles
 E2(B2PLYPD3) =    -0.4390973977D+00 E(B2PLYPD3) =    -0.34723683617290D+03
 Optimization completed.
 SCF Done:  E(UB2PLYPD3) =  -346.797158175     A.U. after   16 cycles
 E2(B2PLYPD3) =    -0.4391806995D+00 E(B2PLYPD3) =    -0.34723633887468D+03
 SCF Done:  E(UB2PLYPD3) =  -346.797446966     A.U. after   15 cycles
 E2(B2PLYPD3) =    -0.4389863764D+00 E(B2PLYPD3) =    -0.34723643334217D+03
 SCF Done:  E(UB2PLYPD3) =  -346.797396666     A.U. after   12 cycles
 E2(B2PLYPD3) =    -0.4390450118D+00 E(B2PLYPD3) =    -0.34723644167785D+03
 SCF Done:  E(UB2PLYPD3) =  -346.797392065     A.U. after    9 cycles
 E2(B2PLYPD3) =    -0.4390499168D+00 E(B2PLYPD3) =    -0.34723644198189D+03
 SCF Done:  E(UB2PLYPD3) =  -346.796670877     A.U. after   15 cycles
 E2(B2PLYPD3) =    -0.4390679584D+00 E(B2PLYPD3) =    -0.34723573883527D+03
 E2(B2PLYPD3) =    -0.4388722583D+00 E(B2PLYPD3) =    -0.34723584075471D+03
 E2(B2PLYPD3) =    -0.4389198610D+00 E(B2PLYPD3) =    -0.34723585237122D+03
 E2(B2PLYPD3) =    -0.4389276011D+00 E(B2PLYPD3) =    -0.34723585289548D+03
 E2(B2PLYPD3) =    -0.4389257629D+00 E(B2PLYPD3) =    -0.34723585290215D+03
 E2(B2PLYPD3) =    -0.4388922616D+00 E(B2PLYPD3) =    -0.34723508650799D+03
 E2(B2PLYPD3) =    -0.4387284172D+00 E(B2PLYPD3) =    -0.34723518318909D+03
 E2(B2PLYPD3) =    -0.4387424756D+00 E(B2PLYPD3) =    -0.34723519440761D+03
 E2(B2PLYPD3) =    -0.4387435733D+00 E(B2PLYPD3) =    -0.34723519568998D+03
 E2(B2PLYPD3) =    -0.4387333950D+00 E(B2PLYPD3) =    -0.34723519580990D+03
 E2(B2PLYPD3) =    -0.4384507699D+00 E(B2PLYPD3) =    -0.34723568815495D+03
 E2(B2PLYPD3) =    -0.4384532043D+00 E(B2PLYPD3) =    -0.34723568820009D+03
 E2(B2PLYPD3) =    -0.4385696079D+00 E(B2PLYPD3) =    -0.34723607390078D+03
 E2(B2PLYPD3) =    -0.4386460291D+00 E(B2PLYPD3) =    -0.34723609744083D+03
 E2(B2PLYPD3) =    -0.4386398383D+00 E(B2PLYPD3) =    -0.34723609787741D+03
 E2(B2PLYPD3) =    -0.4386367615D+00 E(B2PLYPD3) =    -0.34723609798343D+03
 E2(B2PLYPD3) =    -0.4387916100D+00 E(B2PLYPD3) =    -0.34723649774961D+03
 E2(B2PLYPD3) =    -0.4388392426D+00 E(B2PLYPD3) =    -0.34723651821833D+03
 E2(B2PLYPD3) =    -0.4388373083D+00 E(B2PLYPD3) =    -0.34723651957170D+03
 E2(B2PLYPD3) =    -0.4388301042D+00 E(B2PLYPD3) =    -0.34723651966509D+03
 SCF Done:  E(UB2PLYPD3) =  -346.797807561     A.U. after   16 cycles
 E2(B2PLYPD3) =    -0.4390137781D+00 E(B2PLYPD3) =    -0.34723682133898D+03
 SCF Done:  E(UB2PLYPD3) =  -346.797884405     A.U. after   13 cycles
 E2(B2PLYPD3) =    -0.4389575297D+00 E(B2PLYPD3) =    -0.34723684193500D+03
 SCF Done:  E(UB2PLYPD3) =  -346.797851131     A.U. after   11 cycles
 E2(B2PLYPD3) =    -0.4389938925D+00 E(B2PLYPD3) =    -0.34723684502371D+03
 SCF Done:  E(UB2PLYPD3) =  -346.797865631     A.U. after   10 cycles
 E2(B2PLYPD3) =    -0.4389795454D+00 E(B2PLYPD3) =    -0.34723684517632D+03
 SCF Done:  E(UB2PLYPD3) =  -346.797860853     A.U. after   11 cycles
 E2(B2PLYPD3) =    -0.4389804455D+00 E(B2PLYPD3) =    -0.34723684129883D+03
 SCF Done:  E(UB2PLYPD3) =  -346.797860966     A.U. after   11 cycles
 E2(B2PLYPD3) =    -0.4389842222D+00 E(B2PLYPD3) =    -0.34723684518821D+03
    -- Stationary point found.
 SCF Done:  E(UB2PLYPD3) =  -346.797761477     A.U. after   17 cycles
 E2(B2PLYPD3) =    -0.4391648328D+00 E(B2PLYPD3) =    -0.34723692630931D+03
 SCF Done:  E(UB2PLYPD3) =  -346.797930961     A.U. after   13 cycles
 E2(B2PLYPD3) =    -0.4390384790D+00 E(B2PLYPD3) =    -0.34723696944019D+03
 SCF Done:  E(UB2PLYPD3) =  -346.797891964     A.U. after   11 cycles
 E2(B2PLYPD3) =    -0.4390788661D+00 E(B2PLYPD3) =    -0.34723697083022D+03
 SCF Done:  E(UB2PLYPD3) =  -346.797896667     A.U. after    8 cycles
 E2(B2PLYPD3) =    -0.4390743209D+00 E(B2PLYPD3) =    -0.34723697098821D+03
 Optimization completed.
    -- Stationary point found.

                          Input orientation:
 ---------------------------------------------------------------------
 Center     Atomic      Atomic             Coordinates (Angstroms)
 Number     Number       Type             X           Y           Z
 ---------------------------------------------------------------------
      1          6           0        0.410738    0.954510   -1.256017
      2          6           0        1.093924    0.854750   -0.141461
      3          1           0        0.674381    0.845380   -2.297994
      4          1           0        0.574076    1.015682    0.800637
      5          6           0       -2.376915   -0.262292    0.741156
      6          1           0       -1.637603   -0.896805    0.250216
      7          1           0       -2.420224   -0.493539    1.803756
      8          1           0       -3.354367   -0.407644    0.284565
      9          8           0       -1.992031    1.103342    0.673194
     10          8           0       -2.005389    1.478675   -0.692866
     11          1           0       -0.973448    1.280156   -1.018818
     12          6           0        2.560691    0.511522   -0.046309
     13          1           0        2.981955    0.416539   -1.046468
     14          1           0        3.076476    1.341302    0.441955
     15          6           0        2.790455   -0.771983    0.752350
     16          1           0        2.313706   -1.621154    0.265208
     17          1           0        3.854299   -0.985517    0.845522
     18          1           0        2.375811   -0.685694    1.756305
 ---------------------------------------------------------------------

 Alpha  occ. eigenvalues --  -19.78358 -19.77945 -10.65741 -10.64409 -10.63248
 Alpha  occ. eigenvalues --  -10.63084 -10.61359  -1.26938  -1.02291  -0.93692
 Alpha  occ. eigenvalues --   -0.85811  -0.77533  -0.73707  -0.65674  -0.61706
 Alpha  occ. eigenvalues --   -0.55383  -0.54479  -0.54131  -0.53200  -0.50073
 Alpha  occ. eigenvalues --   -0.47979  -0.45910  -0.43828  -0.43538  -0.41724
 Alpha  occ. eigenvalues --   -0.37009  -0.36722  -0.32882  -0.30460
 Alpha virt. eigenvalues --    0.05420   0.07805   0.09505   0.10319   0.11886
 Alpha virt. eigenvalues --    0.12716   0.13762   0.14662   0.15313   0.16065
 Alpha virt. eigenvalues --    0.17578   0.17951   0.20356   0.23121   0.24566

  Beta  occ. eigenvalues --  -19.78249 -19.76651 -10.65747 -10.63502 -10.62906
  Beta  occ. eigenvalues --  -10.62789 -10.61374  -1.25404  -0.99955  -0.92905
  Beta  occ. eigenvalues --   -0.84278  -0.77204  -0.72446  -0.64228  -0.58464
  Beta  occ. eigenvalues --   -0.54500  -0.53895  -0.53796  -0.52520  -0.48319
  Beta  occ. eigenvalues --   -0.46563  -0.45347  -0.43176  -0.42600  -0.41529
  Beta  occ. eigenvalues --   -0.35731  -0.33847  -0.31831
  Beta virt. eigenvalues --   -0.05110   0.06192   0.07816   0.09735   0.10577
  Beta virt. eigenvalues --    0.11900   0.13379   0.13908   0.14729   0.15512
  Beta virt. eigenvalues --    0.16097   0.17640   0.18246   0.20625   0.23356

 Mulliken charges and spin densities:
               1          2
     1  C   -0.277750   0.783920
     2  C   -0.111063  -0.160550
     3  H    0.155751   0.025460
     4  H    0.168009   0.025634
     5  C   -0.068002  -0.002319
     6  H    0.074769  -0.000257
     7  H    0.094022  -0.000589
     8  H    0.098625   0.001515
     9  O   -0.194442   0.018725
    10  O   -0.230356   0.324888
    11  H    0.228415  -0.071836
    12  C   -0.146138   0.059648
    13  H    0.096447  -0.002494
    14  H    0.105497  -0.001453
    15  C   -0.295257  -0.001359
    16  H    0.099944   0.000310
    17  H    0.104394   0.000725
    18  H    0.097135   0.000033
 Sum of Mulliken charges =  -0.00000   1.00000

 Dipole moment (field-independent basis, Debye):
    X=              2.2889    Y=             -2.1965    Z=              0.1581  Tot=              3.1763
 Quadrupole moment (field-independent basis, Debye-Ang):
   XX=            -44.0833   YY=            -49.6487   ZZ=            -42.0448
   XY=              6.2036   XZ=             -1.8842   YZ=             -0.6013

 Normal termination of Gaussian 16 at Wed Jun 19 05:10:08 2019.
