 Gaussian 16, Revision B.01,
 Gaussian 16:  ES64L-G16RevB.01 20-Dec-2017

 ----------------------------------------------------------------------
 # opt=(calcfc,ts,noeigentest,maxcyc=500) freq=noraman uB2PLYPD3/cc-pvt
 z
 ----------------------------------------------------------------------

 -------------------
 Title Card Required
 -------------------
 Symbolic Z-matrix:
 Charge =  0 Multiplicity = 2

 SCF Done:  E(UB2PLYPD3) =  -345.576810628     A.U. after   21 cycles
 E2(B2PLYPD3) =    -0.4348708786D+00 E(B2PLYPD3) =    -0.34601168150676D+03
 E2(B2PLYPD3) =    -0.4348708786D+00 E(B2PLYPD3) =    -0.34601168150676D+03
 SCF Done:  E(UB2PLYPD3) =  -345.576813035     A.U. after   10 cycles
 E2(B2PLYPD3) =    -0.4348685220D+00 E(B2PLYPD3) =    -0.34601168155709D+03
 Optimization completed.
    -- Stationary point found.
 Normal termination of Gaussian 16 at Mon Jun 24 15:22:42 2019.

 ----------------------------------------------------------------------
 #N Geom=AllCheck Guess=TCheck SCRF=Check GenChk UB2PLYPD3(FC)/CC-pVTZ
 Freq
 ----------------------------------------------------------------------

 Structure from the checkpoint file:  "/localscratch/353443/Gau-87375.chk"
 -------------------
 Title Card Required
 -------------------
 Charge =  0 Multiplicity = 2

                         Standard orientation:
 ---------------------------------------------------------------------
 Center     Atomic      Atomic             Coordinates (Angstroms)
 Number     Number       Type             X           Y           Z
 ---------------------------------------------------------------------
      1          6           0       -1.296878   -0.242924    0.562823
      2          1           0       -1.351939   -0.369154    1.641780
      3          6           0        2.433236    0.285091    0.346037
      4          1           0        3.093535   -0.453028    0.797195
      5          1           0        3.010438    1.036746   -0.187427
      6          1           0        1.818524    0.760580    1.109245
      7          8           0        1.612525   -0.327999   -0.644997
      8          8           0        0.894535   -1.355985   -0.039289
      9          1           0       -0.141801   -0.837546    0.286736
     10          6           0       -1.054147    1.093828    0.156187
     11          6           0       -0.792433    2.210524   -0.231862
     12          1           0       -0.582645    3.194183   -0.566536
     13          6           0       -2.317834   -1.037694   -0.223485
     14          1           0       -2.298866   -2.083686    0.075395
     15          1           0       -3.324357   -0.651965   -0.050844
     16          1           0       -2.111039   -0.977212   -1.289453
 ---------------------------------------------------------------------

 SCF Done:  E(UB2PLYPD3) =  -345.576813035     A.U. after    1 cycles
 E2(B2PLYPD3) =    -0.4348685114D+00 E(B2PLYPD3) =    -0.34601168154651D+03
 E2(B2PLYPD3) =    -0.4348685114D+00 E(B2PLYPD3) =    -0.34601168154651D+03

 The electronic state is 2-A.
 Alpha  occ. eigenvalues --  -19.79118 -19.78818 -10.66070 -10.65850 -10.63053
 Alpha  occ. eigenvalues --  -10.62607 -10.62086  -1.28258  -1.01777  -0.93608
 Alpha  occ. eigenvalues --   -0.85702  -0.77734  -0.75583  -0.62994  -0.61035
 Alpha  occ. eigenvalues --   -0.56558  -0.55810  -0.54698  -0.52060  -0.48852
 Alpha  occ. eigenvalues --   -0.47938  -0.44921  -0.44251  -0.39774  -0.36605
 Alpha  occ. eigenvalues --   -0.35536  -0.33446  -0.28503
 Alpha virt. eigenvalues --    0.07101   0.09011   0.09641   0.10674   0.11001
 Alpha virt. eigenvalues --    0.12641   0.13683   0.15472   0.15563   0.16543
 Alpha virt. eigenvalues --    0.17185   0.19777   0.22930   0.25401   0.26051

  Beta  occ. eigenvalues --  -19.78824 -19.77136 -10.65866 -10.65027 -10.63415
  Beta  occ. eigenvalues --  -10.62142 -10.62073  -1.26138  -0.98726  -0.92262
  Beta  occ. eigenvalues --   -0.84767  -0.77231  -0.74243  -0.61835  -0.58108
  Beta  occ. eigenvalues --   -0.55941  -0.54460  -0.54263  -0.50445  -0.48231
  Beta  occ. eigenvalues --   -0.45339  -0.44736  -0.43375  -0.36308  -0.35294
  Beta  occ. eigenvalues --   -0.33180  -0.31388
  Beta virt. eigenvalues --   -0.06284   0.07255   0.09132   0.10526   0.10796
  Beta virt. eigenvalues --    0.11073   0.13213   0.14215   0.15519   0.15734
  Beta virt. eigenvalues --    0.16749   0.17297   0.20395   0.23472   0.25709

 Mulliken charges and spin densities:
               1          2
     1  C   -0.174379   0.492533
     2  H    0.131615  -0.011698
     3  C   -0.061547  -0.007214
     4  H    0.095358   0.001843
     5  H    0.095423  -0.000934
     6  H    0.077841   0.003829
     7  O   -0.172914   0.056932
     8  O   -0.223699   0.441169
     9  H    0.208185  -0.084094
    10  C   -0.009387  -0.210785
    11  C   -0.191803   0.320666
    12  H    0.169968  -0.010382
    13  C   -0.279571  -0.025656
    14  H    0.108457   0.002400
    15  H    0.109187   0.027219
    16  H    0.117266   0.004174
 Sum of Mulliken charges =  -0.00000   1.00000

 Dipole moment (field-independent basis, Debye):
    X=             -0.5616    Y=              1.4078    Z=              1.2942  Tot=              1.9931
 Quadrupole moment (field-independent basis, Debye-Ang):
   XX=            -38.9109   YY=            -40.9705   ZZ=            -43.8718
   XY=              4.8447   XZ=              1.4043   YZ=             -2.3401

  Exact polarizability: 107.552  -4.443  90.081  -3.402  -5.011  54.179
 Approx polarizability:  89.901  -0.235 106.815  -7.329  -9.677  67.209

 ******    1 imaginary frequencies (negative Signs) ******

                      1                      2                      3
                      A                      A                      A
 Frequencies --  -1930.9694                37.7760                73.6947
 Red. masses --      1.1255                 3.8389                 4.2341
 Frc consts  --      2.4727                 0.0032                 0.0135
 IR Inten    --   2531.5291                 2.9087                 0.1706

                      4                      5                      6
                      A                      A                      A
 Frequencies --    115.5769               141.6881               181.4616
 Red. masses --      2.6498                 3.0593                 1.5508
 Frc consts  --      0.0209                 0.0362                 0.0301
 IR Inten    --      6.1414                 0.5004                 2.3034

                      7                      8                      9
                      A                      A                      A
 Frequencies --    188.2640               206.3402               269.8054
 Red. masses --      1.0815                 2.3568                 2.9706
 Frc consts  --      0.0226                 0.0591                 0.1274
 IR Inten    --      0.1283                 0.8143                 0.2600

                     10                     11                     12
                      A                      A                      A
 Frequencies --    463.5656               474.4083               511.6089
 Red. masses --      5.1959                 3.7776                 3.3816
 Frc consts  --      0.6579                 0.5009                 0.5215
 IR Inten    --      2.9516                 5.3542                 6.1215

                     13                     14                     15
                      A                      A                      A
 Frequencies --    559.0272               623.5003               650.5583
 Red. masses --      3.4565                 1.2568                 1.2352
 Frc consts  --      0.6364                 0.2879                 0.3080
 IR Inten    --      6.4265                42.3038                44.1142

                     16                     17                     18
                      A                      A                      A
 Frequencies --    821.0492               880.6129               933.7628
 Red. masses --      1.1787                 2.5271                 4.4852
 Frc consts  --      0.4682                 1.1546                 2.3041
 IR Inten    --     11.1974                 1.2447                13.9064

                     19                     20                     21
                      A                      A                      A
 Frequencies --   1059.1957              1074.0474              1108.9131
 Red. masses --      8.3228                 1.9692                 1.6441
 Frc consts  --      5.5014                 1.3384                 1.1912
 IR Inten    --     58.9230                10.5749                 6.5018

                     22                     23                     24
                      A                      A                      A
 Frequencies --   1130.5557              1166.7335              1174.9999
 Red. masses --      1.8421                 1.1665                 1.2528
 Frc consts  --      1.3872                 0.9356                 1.0191
 IR Inten    --      8.0784                 6.2133                 2.3939

                     25                     26                     27
                      A                      A                      A
 Frequencies --   1215.9847              1349.7777              1416.1976
 Red. masses --      1.5549                 1.4231                 1.2076
 Frc consts  --      1.3546                 1.5276                 1.4269
 IR Inten    --      4.0276                 9.3379                 2.7603

                     28                     29                     30
                      A                      A                      A
 Frequencies --   1457.1784              1466.2131              1484.4608
 Red. masses --      1.1466                 1.1049                 1.0515
 Frc consts  --      1.4345                 1.3995                 1.3652
 IR Inten    --      6.0754                 2.1472                 7.8433

                     31                     32                     33
                      A                      A                      A
 Frequencies --   1500.5935              1503.7787              1511.6253
 Red. masses --      1.0446                 1.0510                 1.0485
 Frc consts  --      1.3859                 1.4003                 1.4116
 IR Inten    --      5.1892                 4.5321                 7.9326

                     34                     35                     36
                      A                      A                      A
 Frequencies --   2158.6933              3044.8797              3047.9418
 Red. masses --      6.1726                 1.0397                 1.0280
 Frc consts  --     16.9472                 5.6795                 5.6267
 IR Inten    --      3.4831                23.6412                40.8216

                     37                     38                     39
                      A                      A                      A
 Frequencies --   3110.1447              3115.6909              3129.0415
 Red. masses --      1.0859                 1.0929                 1.1072
 Frc consts  --      6.1890                 6.2509                 6.3868
 IR Inten    --      5.9997                 9.3295                30.8392

                     40                     41                     42
                      A                      A                      A
 Frequencies --   3146.5395              3152.0115              3488.0999
 Red. masses --      1.1023                 1.1051                 1.1521
 Frc consts  --      6.4299                 6.4687                 8.2588
 IR Inten    --     15.1327                13.0385                60.8397

 - Thermochemistry -
 -------------------
 Temperature   298.150 Kelvin.  Pressure   1.00000 Atm.
 Atom     1 has atomic number  6 and mass  12.00000

 Molecular mass:   101.06025 amu.
 Principal axes and moments of inertia in atomic units:
                           1         2         3
     Eigenvalues --   559.654501061.208751477.64742
           X            0.99685   0.07737   0.01771
           Y           -0.07722   0.99698  -0.00882
           Z           -0.01833   0.00743   0.99980
 This molecule is an asymmetric top.
 Rotational symmetry number  1.
 Warning -- assumption of classical behavior for rotation
           may cause significant error
 Rotational temperatures (Kelvin)      0.15476     0.08162     0.05862
 Rotational constants (GHZ):           3.22474     1.70065     1.22136
    1 imaginary frequencies ignored.
 Zero-point vibrational energy     323865.0 (Joules/Mol)
                                   77.40559 (Kcal/Mol)
 Warning -- explicit consideration of  12 degrees of freedom as
           vibrations may cause significant error
 Vibrational temperatures:     54.35   106.03   166.29   203.86   261.08
          (Kelvin)            270.87   296.88   388.19   666.97   682.57
                              736.09   804.32   897.08   936.01  1181.31
                             1267.01  1343.48  1523.95  1545.31  1595.48
                             1626.62  1678.67  1690.56  1749.53  1942.03
                             2037.59  2096.55  2109.55  2135.81  2159.02
                             2163.60  2174.89  3105.88  4380.90  4385.31
                             4474.80  4482.78  4501.99  4527.17  4535.04
                             5018.60

 Zero-point correction=                           0.123354 (Hartree/Particle)
 Thermal correction to Energy=                    0.132936
 Thermal correction to Enthalpy=                  0.133880
 Thermal correction to Gibbs Free Energy=         0.087608
 Sum of electronic and zero-point Energies=           -345.888328
 Sum of electronic and thermal Energies=              -345.878746
 Sum of electronic and thermal Enthalpies=            -345.877802
 Sum of electronic and thermal Free Energies=         -345.924073

                     E (Thermal)             CV                S
                      KCal/Mol        Cal/Mol-Kelvin    Cal/Mol-Kelvin
 Total                   83.419             32.024             97.387
 Electronic               0.000              0.000              1.377
 Translational            0.889              2.981             39.749
 Rotational               0.889              2.981             28.264
 Vibrational             81.641             26.062             27.996
 Vibration     1          0.594              1.982              5.372
 Vibration     2          0.599              1.966              4.052
 Vibration     3          0.608              1.936              3.173
 Vibration     4          0.615              1.912              2.781
 Vibration     5          0.630              1.865              2.313
 Vibration     6          0.633              1.856              2.245
 Vibration     7          0.641              1.831              2.076
 Vibration     8          0.674              1.729              1.597
 Vibration     9          0.821              1.331              0.756
 Vibration    10          0.831              1.307              0.725
 Vibration    11          0.867              1.224              0.630
 Vibration    12          0.915              1.120              0.526

 Optimization completed.
    -- Stationary point found.

 1\1\GINC-N143\Freq\UB2PLYPD3-FC\CC-pVTZ\C5H9O2(2)\ROOT\24-Jun-2019\0\\
 #N Geom=AllCheck Guess=TCheck SCRF=Check GenChk UB2PLYPD3(FC)/CC-pVTZ
 Freq\\Title Card Required\\0,2\C,-0.7993627883,1.0466653133,-0.5761023
 647\H,-0.6651765786,1.3811080755,-1.6023841809\C,2.1888101436,-1.25385
 89926,-0.442105292\H,3.1656315024,-0.8596812025,-0.7156076674\H,2.2783
 831582,-2.2750317253,-0.078907943\H,1.5139211474,-1.2207483396,-1.2964
 330763\O,1.6474332343,-0.5153906685,0.6502182736\O,1.5732747479,0.8236
 191538,0.2751176161\H,0.4596770266,0.9435289767,-0.1660006925\C,-1.263

 Normal termination of Gaussian 16 at Mon Jun 24 16:49:31 2019.
