 Gaussian 16, Revision B.01,
 Gaussian 16:  ES64L-G16RevB.01 20-Dec-2017

 ----------------------------------------------------------------------
 # opt=(calcfc,ts,noeigentest,maxcyc=500,modredundant) uB2PLYPD3/cc-pvt
 z scf=maxcyc=500 nosymm
 ----------------------------------------------------------------------

 -------------------
 Title Card Required
 -------------------
 Symbolic Z-matrix:
 Charge =  0 Multiplicity = 2

 SCF Done:  E(UB2PLYPD3) =  -345.584448425     A.U. after   25 cycles
 E2(B2PLYPD3) =    -0.4287796469D+00 E(B2PLYPD3) =    -0.34601322807201D+03
 E2(B2PLYPD3) =    -0.4287796469D+00 E(B2PLYPD3) =    -0.34601322807201D+03

  Exact polarizability: 115.137  -6.335  84.660  -4.863  -3.739  51.679
 Approx polarizability: 104.365 -15.913  96.361  -6.510  -2.744  62.564

 SCF Done:  E(UB2PLYPD3) =  -345.584438125     A.U. after   10 cycles
 E2(B2PLYPD3) =    -0.4287897593D+00 E(B2PLYPD3) =    -0.34601322788463D+03
 Optimization completed.
    -- Stationary point found.
 SCF Done:  E(UB2PLYPD3) =  -345.584047590     A.U. after   16 cycles
 E2(B2PLYPD3) =    -0.4289899611D+00 E(B2PLYPD3) =    -0.34601303755131D+03
 SCF Done:  E(UB2PLYPD3) =  -345.584361910     A.U. after   15 cycles
 E2(B2PLYPD3) =    -0.4287841515D+00 E(B2PLYPD3) =    -0.34601314606136D+03
 SCF Done:  E(UB2PLYPD3) =  -345.584316188     A.U. after   13 cycles
 E2(B2PLYPD3) =    -0.4288503630D+00 E(B2PLYPD3) =    -0.34601316655131D+03
 SCF Done:  E(UB2PLYPD3) =  -345.584301101     A.U. after   10 cycles
 E2(B2PLYPD3) =    -0.4288665301D+00 E(B2PLYPD3) =    -0.34601316763154D+03
 SCF Done:  E(UB2PLYPD3) =  -345.584303019     A.U. after   10 cycles
 E2(B2PLYPD3) =    -0.4288651357D+00 E(B2PLYPD3) =    -0.34601316815521D+03
 Optimization completed.
 SCF Done:  E(UB2PLYPD3) =  -345.583769314     A.U. after   16 cycles
 E2(B2PLYPD3) =    -0.4290894489D+00 E(B2PLYPD3) =    -0.34601285876324D+03
 SCF Done:  E(UB2PLYPD3) =  -345.584131328     A.U. after   15 cycles
 E2(B2PLYPD3) =    -0.4288219959D+00 E(B2PLYPD3) =    -0.34601295332421D+03
 SCF Done:  E(UB2PLYPD3) =  -345.584075679     A.U. after   13 cycles
 E2(B2PLYPD3) =    -0.4289100157D+00 E(B2PLYPD3) =    -0.34601298569520D+03
 E2(B2PLYPD3) =    -0.4289344596D+00 E(B2PLYPD3) =    -0.34601298733125D+03
 E2(B2PLYPD3) =    -0.4289288500D+00 E(B2PLYPD3) =    -0.34601298762729D+03
 E2(B2PLYPD3) =    -0.4289286705D+00 E(B2PLYPD3) =    -0.34601298767731D+03
 E2(B2PLYPD3) =    -0.4291763445D+00 E(B2PLYPD3) =    -0.34601251277269D+03
 E2(B2PLYPD3) =    -0.4288307404D+00 E(B2PLYPD3) =    -0.34601262349542D+03
 E2(B2PLYPD3) =    -0.4289359200D+00 E(B2PLYPD3) =    -0.34601267247892D+03
 E2(B2PLYPD3) =    -0.4289649796D+00 E(B2PLYPD3) =    -0.34601267652869D+03
 E2(B2PLYPD3) =    -0.4289616852D+00 E(B2PLYPD3) =    -0.34601267626644D+03
 E2(B2PLYPD3) =    -0.4289616666D+00 E(B2PLYPD3) =    -0.34601267637256D+03
 E2(B2PLYPD3) =    -0.4285006326D+00 E(B2PLYPD3) =    -0.34601254063396D+03
 E2(B2PLYPD3) =    -0.4285075447D+00 E(B2PLYPD3) =    -0.34601254049266D+03
 E2(B2PLYPD3) =    -0.4285862323D+00 E(B2PLYPD3) =    -0.34601278650350D+03
 E2(B2PLYPD3) =    -0.4286197981D+00 E(B2PLYPD3) =    -0.34601280139625D+03
 E2(B2PLYPD3) =    -0.4286194757D+00 E(B2PLYPD3) =    -0.34601280133831D+03
 E2(B2PLYPD3) =    -0.4286205596D+00 E(B2PLYPD3) =    -0.34601280148961D+03
 E2(B2PLYPD3) =    -0.4287413716D+00 E(B2PLYPD3) =    -0.34601299716075D+03
 E2(B2PLYPD3) =    -0.4286389918D+00 E(B2PLYPD3) =    -0.34601302783747D+03
 E2(B2PLYPD3) =    -0.4286847506D+00 E(B2PLYPD3) =    -0.34601303479120D+03
 E2(B2PLYPD3) =    -0.4286895530D+00 E(B2PLYPD3) =    -0.34601303498327D+03
 SCF Done:  E(UB2PLYPD3) =  -345.584238799     A.U. after   19 cycles
 E2(B2PLYPD3) =    -0.4288404522D+00 E(B2PLYPD3) =    -0.34601307925120D+03
 SCF Done:  E(UB2PLYPD3) =  -345.584508503     A.U. after   15 cycles
 E2(B2PLYPD3) =    -0.4286416228D+00 E(B2PLYPD3) =    -0.34601315012604D+03
 SCF Done:  E(UB2PLYPD3) =  -345.584478359     A.U. after   13 cycles
 E2(B2PLYPD3) =    -0.4287020237D+00 E(B2PLYPD3) =    -0.34601318038276D+03
 SCF Done:  E(UB2PLYPD3) =  -345.584447601     A.U. after   16 cycles
 E2(B2PLYPD3) =    -0.4287341426D+00 E(B2PLYPD3) =    -0.34601318174397D+03
 SCF Done:  E(UB2PLYPD3) =  -345.584453432     A.U. after    9 cycles
 E2(B2PLYPD3) =    -0.4287285808D+00 E(B2PLYPD3) =    -0.34601318201270D+03
    -- Stationary point found.
 SCF Done:  E(UB2PLYPD3) =  -345.584187083     A.U. after   19 cycles
 E2(B2PLYPD3) =    -0.4289064939D+00 E(B2PLYPD3) =    -0.34601309357662D+03
 SCF Done:  E(UB2PLYPD3) =  -345.584500695     A.U. after   17 cycles
 E2(B2PLYPD3) =    -0.4286884210D+00 E(B2PLYPD3) =    -0.34601318911580D+03
 SCF Done:  E(UB2PLYPD3) =  -345.584463714     A.U. after   13 cycles
 E2(B2PLYPD3) =    -0.4287628655D+00 E(B2PLYPD3) =    -0.34601322657968D+03
 SCF Done:  E(UB2PLYPD3) =  -345.584436661     A.U. after   16 cycles
 E2(B2PLYPD3) =    -0.4287919805D+00 E(B2PLYPD3) =    -0.34601322864111D+03
 SCF Done:  E(UB2PLYPD3) =  -345.584438942     A.U. after    9 cycles
 E2(B2PLYPD3) =    -0.4287899378D+00 E(B2PLYPD3) =    -0.34601322888027D+03
 Optimization completed.
    -- Stationary point found.

                          Input orientation:
 ---------------------------------------------------------------------
 Center     Atomic      Atomic             Coordinates (Angstroms)
 Number     Number       Type             X           Y           Z
 ---------------------------------------------------------------------
      1          6           0        0.609915    0.045018    1.442147
      2          6           0        1.555752    0.355261    0.579621
      3          1           0        0.444125    0.337827    2.467576
      4          6           0       -2.420022    0.003885   -0.613252
      5          1           0       -1.939649    0.869494   -0.153487
      6          1           0       -2.653293    0.219275   -1.653964
      7          1           0       -3.326340   -0.253822   -0.068069
      8          8           0       -1.529203   -1.100562   -0.653939
      9          8           0       -1.272363   -1.496757    0.682168
     10          1           0       -0.440719   -0.856631    0.997824
     11          1           0        2.346300    1.029576    0.912925
     12          6           0        1.653615   -0.125071   -0.794956
     13          6           0        2.649640    0.223060   -1.609052
     14          1           0        0.867123   -0.783597   -1.136988
     15          1           0        2.702030   -0.146040   -2.621978
     16          1           0        3.440190    0.885064   -1.281695
 ---------------------------------------------------------------------

 Alpha  occ. eigenvalues --  -19.78718 -19.78541 -10.66045 -10.65525 -10.64280
 Alpha  occ. eigenvalues --  -10.63098 -10.62059  -1.27390  -1.02849  -0.94469
 Alpha  occ. eigenvalues --   -0.86577  -0.77945  -0.71254  -0.65811  -0.60476
 Alpha  occ. eigenvalues --   -0.57179  -0.55634  -0.54547  -0.53274  -0.49396
 Alpha  occ. eigenvalues --   -0.48652  -0.44096  -0.43811  -0.39652  -0.37668
 Alpha  occ. eigenvalues --   -0.36544  -0.31689  -0.29576
 Alpha virt. eigenvalues --    0.01138   0.08674   0.09502   0.10394   0.11241
 Alpha virt. eigenvalues --    0.12683   0.13182   0.14986   0.16210   0.16608
 Alpha virt. eigenvalues --    0.18663   0.19824   0.24265   0.26345   0.28602

  Beta  occ. eigenvalues --  -19.78625 -19.77274 -10.66049 -10.64582 -10.63789
  Beta  occ. eigenvalues --  -10.62872 -10.62260  -1.25883  -1.00556  -0.93674
  Beta  occ. eigenvalues --   -0.85156  -0.77599  -0.69637  -0.63841  -0.58149
  Beta  occ. eigenvalues --   -0.56329  -0.54710  -0.54235  -0.52000  -0.48187
  Beta  occ. eigenvalues --   -0.46749  -0.43594  -0.43049  -0.39480  -0.36182
  Beta  occ. eigenvalues --   -0.34113  -0.28805
  Beta virt. eigenvalues --   -0.05925   0.01876   0.08841   0.09579   0.10551
  Beta virt. eigenvalues --    0.11422   0.13008   0.13628   0.15047   0.16297
  Beta virt. eigenvalues --    0.16754   0.19218   0.20190   0.24686   0.26976

 Mulliken charges and spin densities:
               1          2
     1  C   -0.282998   0.842422
     2  C   -0.066132  -0.174628
     3  H    0.155375   0.020732
     4  C   -0.058523  -0.001484
     5  H    0.072965  -0.000438
     6  H    0.095835  -0.000550
     7  H    0.093524   0.001722
     8  O   -0.194419   0.017485
     9  O   -0.223979   0.318298
    10  H    0.227728  -0.070211
    11  H    0.139419   0.058058
    12  C   -0.069573   0.106377
    13  C   -0.307614  -0.125773
    14  H    0.165197  -0.002603
    15  H    0.132674   0.005710
    16  H    0.120519   0.004884
 Sum of Mulliken charges =  -0.00000   1.00000

 Dipole moment (field-independent basis, Debye):
    X=              0.7396    Y=              2.6353    Z=              0.1478  Tot=              2.7411
 Quadrupole moment (field-independent basis, Debye-Ang):
   XX=            -38.8964   YY=            -48.6659   ZZ=            -39.7345
   XY=             -1.3014   XZ=              0.8090   YZ=              1.4819

 1\1\GINC-N138\Scan\UB2PLYPD3-FC\CC-pVTZ\C5H9O2(2)\ROOT\13-Jun-2019\0\\
 # opt=(calcfc,ts,noeigentest,maxcyc=500,modredundant) uB2PLYPD3/cc-pvt
 z scf=maxcyc=500 nosymm\\Title Card Required\\0,2\C,0.6099151755,0.045
 0180811,1.4421470144\C,1.5557521184,0.3552614949,0.5796211895\H,0.4441
 252781,0.3378268271,2.4675762141\C,-2.4200218499,0.0038847762,-0.61325
 24466\H,-1.939649155,0.8694943402,-0.1534871327\H,-2.6532934753,0.2192
 75483,-1.6539640718\H,-3.3263403989,-0.2538220763,-0.0680693156\O,-1.5
 292034544,-1.1005618374,-0.6539388541\O,-1.2723632963,-1.4967572195,0.

 Normal termination of Gaussian 16 at Thu Jun 13 06:01:05 2019.
