 Gaussian 16, Revision B.01,
 Gaussian 16:  ES64L-G16RevB.01 20-Dec-2017

 ----------------------------------------------------------------------
 # opt=(calcfc,ts,noeigentest,maxcyc=500,modredundant) uB2PLYPD3/cc-pvt
 z scf=maxcyc=500 nosymm
 ----------------------------------------------------------------------

 -------------------
 Title Card Required
 -------------------
 Symbolic Z-matrix:
 Charge =  0 Multiplicity = 2

 SCF Done:  E(UB2PLYPD3) =  -345.576074705     A.U. after   21 cycles
 E2(B2PLYPD3) =    -0.4339571603D+00 E(B2PLYPD3) =    -0.34601003186545D+03
 E2(B2PLYPD3) =    -0.4339571603D+00 E(B2PLYPD3) =    -0.34601003186545D+03

  Exact polarizability: 145.881   5.990  68.794   1.760  -3.042  54.958
 Approx polarizability: 122.984  13.653  77.110   1.861  -6.057  66.719

 Optimization completed.
    -- Stationary point found.
 SCF Done:  E(UB2PLYPD3) =  -345.575903546     A.U. after   17 cycles
 E2(B2PLYPD3) =    -0.4340757944D+00 E(B2PLYPD3) =    -0.34600997934058D+03
 SCF Done:  E(UB2PLYPD3) =  -345.575979802     A.U. after   14 cycles
 E2(B2PLYPD3) =    -0.4340177379D+00 E(B2PLYPD3) =    -0.34600999753951D+03
 SCF Done:  E(UB2PLYPD3) =  -345.575966228     A.U. after   12 cycles
 E2(B2PLYPD3) =    -0.4340321484D+00 E(B2PLYPD3) =    -0.34600999837655D+03
 SCF Done:  E(UB2PLYPD3) =  -345.575965763     A.U. after    8 cycles
 E2(B2PLYPD3) =    -0.4340326728D+00 E(B2PLYPD3) =    -0.34600999843600D+03
 Optimization completed.
 SCF Done:  E(UB2PLYPD3) =  -345.575744610     A.U. after   16 cycles
 E2(B2PLYPD3) =    -0.4341465305D+00 E(B2PLYPD3) =    -0.34600989114004D+03
 SCF Done:  E(UB2PLYPD3) =  -345.575849444     A.U. after   14 cycles
 E2(B2PLYPD3) =    -0.4340607922D+00 E(B2PLYPD3) =    -0.34600991023581D+03
 SCF Done:  E(UB2PLYPD3) =  -345.575833763     A.U. after   10 cycles
 E2(B2PLYPD3) =    -0.4340771501D+00 E(B2PLYPD3) =    -0.34600991091336D+03
 SCF Done:  E(UB2PLYPD3) =  -345.575833690     A.U. after    7 cycles
 E2(B2PLYPD3) =    -0.4340774888D+00 E(B2PLYPD3) =    -0.34600991117860D+03
 SCF Done:  E(UB2PLYPD3) =  -345.575832828     A.U. after    6 cycles
 E2(B2PLYPD3) =    -0.4340783835D+00 E(B2PLYPD3) =    -0.34600991121153D+03
 E2(B2PLYPD3) =    -0.4341864908D+00 E(B2PLYPD3) =    -0.34600978272854D+03
 E2(B2PLYPD3) =    -0.4340901680D+00 E(B2PLYPD3) =    -0.34600980576365D+03
 E2(B2PLYPD3) =    -0.4341083877D+00 E(B2PLYPD3) =    -0.34600980650617D+03
 E2(B2PLYPD3) =    -0.4349348652D+00 E(B2PLYPD3) =    -0.34600665605460D+03
 E2(B2PLYPD3) =    -0.4345661961D+00 E(B2PLYPD3) =    -0.34600759107934D+03
 E2(B2PLYPD3) =    -0.4350546877D+00 E(B2PLYPD3) =    -0.34600805059371D+03
 E2(B2PLYPD3) =    -0.4339266741D+00 E(B2PLYPD3) =    -0.34600889724035D+03
 E2(B2PLYPD3) =    -0.4339849035D+00 E(B2PLYPD3) =    -0.34600965960599D+03
 E2(B2PLYPD3) =    -0.4341151419D+00 E(B2PLYPD3) =    -0.34600980613022D+03
 E2(B2PLYPD3) =    -0.4337058907D+00 E(B2PLYPD3) =    -0.34600986705420D+03
 E2(B2PLYPD3) =    -0.4337048995D+00 E(B2PLYPD3) =    -0.34600986710334D+03
 E2(B2PLYPD3) =    -0.4337052761D+00 E(B2PLYPD3) =    -0.34600986719529D+03
 E2(B2PLYPD3) =    -0.4337645591D+00 E(B2PLYPD3) =    -0.34600992360381D+03
 E2(B2PLYPD3) =    -0.4337730886D+00 E(B2PLYPD3) =    -0.34600993362752D+03
 E2(B2PLYPD3) =    -0.4337714042D+00 E(B2PLYPD3) =    -0.34600993364573D+03
 E2(B2PLYPD3) =    -0.4338596069D+00 E(B2PLYPD3) =    -0.34600999313963D+03
 E2(B2PLYPD3) =    -0.4338606909D+00 E(B2PLYPD3) =    -0.34601000295293D+03
 E2(B2PLYPD3) =    -0.4338642328D+00 E(B2PLYPD3) =    -0.34601000305618D+03
 E2(B2PLYPD3) =    -0.4338629224D+00 E(B2PLYPD3) =    -0.34601000313272D+03
    -- Stationary point found.
 SCF Done:  E(UB2PLYPD3) =  -345.576044142     A.U. after   16 cycles
 E2(B2PLYPD3) =    -0.4339732415D+00 E(B2PLYPD3) =    -0.34601001738305D+03
 SCF Done:  E(UB2PLYPD3) =  -345.576090978     A.U. after   13 cycles
 E2(B2PLYPD3) =    -0.4339383753D+00 E(B2PLYPD3) =    -0.34601002935280D+03
 SCF Done:  E(UB2PLYPD3) =  -345.574980050     A.U. after   15 cycles
 E2(B2PLYPD3) =    -0.4343639405D+00 E(B2PLYPD3) =    -0.34600934399091D+03
 SCF Done:  E(UB2PLYPD3) =  -345.575926943     A.U. after   16 cycles
 E2(B2PLYPD3) =    -0.4339777668D+00 E(B2PLYPD3) =    -0.34600990470994D+03
 SCF Done:  E(UB2PLYPD3) =  -345.575213882     A.U. after   21 cycles
 E2(B2PLYPD3) =    -0.4341158782D+00 E(B2PLYPD3) =    -0.34600932976021D+03
 SCF Done:  E(UB2PLYPD3) =  -345.576066506     A.U. after   17 cycles
 E2(B2PLYPD3) =    -0.4338642007D+00 E(B2PLYPD3) =    -0.34600993070643D+03
 SCF Done:  E(UB2PLYPD3) =  -345.575302510     A.U. after   18 cycles
 E2(B2PLYPD3) =    -0.4342685523D+00 E(B2PLYPD3) =    -0.34600957106221D+03
 SCF Done:  E(UB2PLYPD3) =  -345.576015529     A.U. after   17 cycles
 E2(B2PLYPD3) =    -0.4339788074D+00 E(B2PLYPD3) =    -0.34600999433682D+03
 SCF Done:  E(UB2PLYPD3) =  -345.576061158     A.U. after   14 cycles
 E2(B2PLYPD3) =    -0.4339658300D+00 E(B2PLYPD3) =    -0.34601002698749D+03
 SCF Done:  E(UB2PLYPD3) =  -345.576075957     A.U. after   13 cycles
 E2(B2PLYPD3) =    -0.4339557717D+00 E(B2PLYPD3) =    -0.34601003172866D+03
 Optimization completed.
    -- Stationary point found.

                          Input orientation:
 ---------------------------------------------------------------------
 Center     Atomic      Atomic             Coordinates (Angstroms)
 Number     Number       Type             X           Y           Z
 ---------------------------------------------------------------------
      1          6           0       -0.995211    0.271342   -0.163920
      2          1           0       -1.044075   -0.781792   -0.434627
      3          6           0        2.453879   -1.202616   -0.464825
      4          1           0        1.556463   -1.817823   -0.538768
      5          1           0        3.081901   -1.351558   -1.340232
      6          1           0        3.000331   -1.453067    0.442125
      7          8           0        2.117063    0.180757   -0.474715
      8          8           0        1.377772    0.457314    0.675684
      9          1           0        0.214366    0.344472    0.342718
     10          6           0       -1.867589    0.614754    0.905326
     11          6           0       -2.577072    0.930440    1.832705
     12          1           0       -3.205604    1.202498    2.641752
     13          6           0       -0.922640    1.217367   -1.343039
     14          1           0       -0.071708    0.967891   -1.973903
     15          1           0       -1.830643    1.151344   -1.945396
     16          1           0       -0.813206    2.244377   -1.003380
 ---------------------------------------------------------------------

 Alpha  occ. eigenvalues --  -19.79654 -19.79397 -10.66607 -10.66165 -10.62931
 Alpha  occ. eigenvalues --  -10.62428 -10.61820  -1.28684  -1.02353  -0.93511
 Alpha  occ. eigenvalues --   -0.85580  -0.78392  -0.75352  -0.63419  -0.61000
 Alpha  occ. eigenvalues --   -0.56988  -0.55755  -0.55334  -0.52421  -0.48820
 Alpha  occ. eigenvalues --   -0.47843  -0.44881  -0.44716  -0.40447  -0.37153
 Alpha  occ. eigenvalues --   -0.35301  -0.33323  -0.28976
 Alpha virt. eigenvalues --    0.06684   0.09246   0.10104   0.10292   0.11382
 Alpha virt. eigenvalues --    0.12297   0.12833   0.14874   0.15815   0.16956
 Alpha virt. eigenvalues --    0.17671   0.20915   0.22262   0.23928   0.27304

  Beta  occ. eigenvalues --  -19.79407 -19.77621 -10.66621 -10.65126 -10.63268
  Beta  occ. eigenvalues --  -10.61943 -10.61871  -1.26541  -0.99160  -0.92134
  Beta  occ. eigenvalues --   -0.84713  -0.77893  -0.74027  -0.61845  -0.58464
  Beta  occ. eigenvalues --   -0.56247  -0.54982  -0.54530  -0.50716  -0.48086
  Beta  occ. eigenvalues --   -0.45123  -0.44592  -0.43633  -0.37534  -0.35776
  Beta  occ. eigenvalues --   -0.33085  -0.31087
  Beta virt. eigenvalues --   -0.06547   0.06813   0.09495   0.10415   0.10777
  Beta virt. eigenvalues --    0.11577   0.12873   0.13538   0.14986   0.16015
  Beta virt. eigenvalues --    0.17059   0.17798   0.21521   0.22646   0.24335

 Mulliken charges and spin densities:
               1          2
     1  C   -0.177017   0.487236
     2  H    0.124315  -0.011281
     3  C   -0.057249  -0.005825
     4  H    0.069678   0.002295
     5  H    0.098211  -0.001161
     6  H    0.095776   0.003298
     7  O   -0.178576   0.047227
     8  O   -0.210739   0.468689
     9  H    0.208072  -0.086647
    10  C    0.000228  -0.196468
    11  C   -0.202247   0.293073
    12  H    0.169777  -0.009637
    13  C   -0.273752  -0.024223
    14  H    0.112528   0.003103
    15  H    0.107527   0.027851
    16  H    0.113467   0.002469
 Sum of Mulliken charges =  -0.00000   1.00000

 Dipole moment (field-independent basis, Debye):
    X=             -0.8372    Y=             -1.6769    Z=             -1.0173  Tot=              2.1326
 Quadrupole moment (field-independent basis, Debye-Ang):
   XX=            -41.2755   YY=            -42.1616   ZZ=            -40.9241
   XY=             -5.8429   XZ=             -3.5629   YZ=              1.5293

 1\1\GINC-N178\Scan\UB2PLYPD3-FC\CC-pVTZ\C5H9O2(2)\ROOT\21-Jun-2019\0\\
 # opt=(calcfc,ts,noeigentest,maxcyc=500,modredundant) uB2PLYPD3/cc-pvt
 z scf=maxcyc=500 nosymm\\Title Card Required\\0,2\C,-0.9952108757,0.27
 13415091,-0.1639198268\H,-1.044075155,-0.7817919112,-0.4346274947\C,2.
 4538792542,-1.2026160456,-0.4648245579\H,1.5564632634,-1.8178234886,-0
 .5387683466\H,3.0819009209,-1.3515581493,-1.3402319433\H,3.0003313928,
 -1.4530673215,0.4421251911\O,2.1170626093,0.180757035,-0.4747151517\O,
 1.3777715759,0.4573138115,0.675683798\H,0.2143663761,0.3444716701,0.34

 Normal termination of Gaussian 16 at Fri Jun 21 05:50:50 2019.
