 Gaussian 16, Revision B.01,
 Gaussian 16:  ES64L-G16RevB.01 20-Dec-2017

 ----------------------------------------------------------------------
 # opt=(calcfc,ts,noeigentest,maxcyc=500,modredundant) uB2PLYPD3/cc-pvt
 z scf=maxcyc=500 nosymm
 ----------------------------------------------------------------------

 -------------------
 Title Card Required
 -------------------
 Symbolic Z-matrix:
 Charge =  0 Multiplicity = 2

 SCF Done:  E(UB2PLYPD3) =  -345.566393071     A.U. after   22 cycles
 E2(B2PLYPD3) =    -0.4316299639D+00 E(B2PLYPD3) =    -0.34599802303492D+03
 E2(B2PLYPD3) =    -0.4316299639D+00 E(B2PLYPD3) =    -0.34599802303492D+03

  Exact polarizability: 131.117  -2.689  58.417   9.463   0.826  56.558
 Approx polarizability: 112.217   1.797  66.397  10.184   3.677  68.403

 Optimization completed.
    -- Stationary point found.
 SCF Done:  E(UB2PLYPD3) =  -345.566398467     A.U. after   15 cycles
 E2(B2PLYPD3) =    -0.4315931489D+00 E(B2PLYPD3) =    -0.34599799161623D+03
 SCF Done:  E(UB2PLYPD3) =  -345.566422281     A.U. after   13 cycles
 E2(B2PLYPD3) =    -0.4315762806D+00 E(B2PLYPD3) =    -0.34599799856119D+03
 SCF Done:  E(UB2PLYPD3) =  -345.566419908     A.U. after   10 cycles
 E2(B2PLYPD3) =    -0.4315786837D+00 E(B2PLYPD3) =    -0.34599799859204D+03
 Optimization completed.
 SCF Done:  E(UB2PLYPD3) =  -345.566385160     A.U. after   14 cycles
 E2(B2PLYPD3) =    -0.4315495900D+00 E(B2PLYPD3) =    -0.34599793475029D+03
 SCF Done:  E(UB2PLYPD3) =  -345.566418726     A.U. after   13 cycles
 E2(B2PLYPD3) =    -0.4315245497D+00 E(B2PLYPD3) =    -0.34599794327581D+03
 SCF Done:  E(UB2PLYPD3) =  -345.566415864     A.U. after    9 cycles
 E2(B2PLYPD3) =    -0.4315274597D+00 E(B2PLYPD3) =    -0.34599794332387D+03
 SCF Done:  E(UB2PLYPD3) =  -345.566368939     A.U. after   13 cycles
 E2(B2PLYPD3) =    -0.4315014029D+00 E(B2PLYPD3) =    -0.34599787034234D+03
 SCF Done:  E(UB2PLYPD3) =  -345.566400835     A.U. after   14 cycles
 E2(B2PLYPD3) =    -0.4314779132D+00 E(B2PLYPD3) =    -0.34599787874820D+03
 SCF Done:  E(UB2PLYPD3) =  -345.566398866     A.U. after    9 cycles
 E2(B2PLYPD3) =    -0.4314799230D+00 E(B2PLYPD3) =    -0.34599787878878D+03
 E2(B2PLYPD3) =    -0.4314548603D+00 E(B2PLYPD3) =    -0.34599781223314D+03
 E2(B2PLYPD3) =    -0.4314356120D+00 E(B2PLYPD3) =    -0.34599781979629D+03
 E2(B2PLYPD3) =    -0.4314369075D+00 E(B2PLYPD3) =    -0.34599781981102D+03
 E2(B2PLYPD3) =    -0.4314139972D+00 E(B2PLYPD3) =    -0.34599777428978D+03
 E2(B2PLYPD3) =    -0.4313998304D+00 E(B2PLYPD3) =    -0.34599778119645D+03
 E2(B2PLYPD3) =    -0.4313831518D+00 E(B2PLYPD3) =    -0.34599776927792D+03
 E2(B2PLYPD3) =    -0.4313754881D+00 E(B2PLYPD3) =    -0.34599777589615D+03
 E2(B2PLYPD3) =    -0.4313678568D+00 E(B2PLYPD3) =    -0.34599780725563D+03
 E2(B2PLYPD3) =    -0.4313673367D+00 E(B2PLYPD3) =    -0.34599781386066D+03
 E2(B2PLYPD3) =    -0.4316745324D+00 E(B2PLYPD3) =    -0.34599771161011D+03
 E2(B2PLYPD3) =    -0.4316789164D+00 E(B2PLYPD3) =    -0.34599772258778D+03
 E2(B2PLYPD3) =    -0.4316822754D+00 E(B2PLYPD3) =    -0.34599772321803D+03
 E2(B2PLYPD3) =    -0.4316831644D+00 E(B2PLYPD3) =    -0.34599772326714D+03
 E2(B2PLYPD3) =    -0.4316357246D+00 E(B2PLYPD3) =    -0.34599776027241D+03
 E2(B2PLYPD3) =    -0.4316573239D+00 E(B2PLYPD3) =    -0.34599777927036D+03
 E2(B2PLYPD3) =    -0.4316745977D+00 E(B2PLYPD3) =    -0.34599778070493D+03
 E2(B2PLYPD3) =    -0.4316734252D+00 E(B2PLYPD3) =    -0.34599778076262D+03
 E2(B2PLYPD3) =    -0.4316737824D+00 E(B2PLYPD3) =    -0.34599778085558D+03
 E2(B2PLYPD3) =    -0.4316180393D+00 E(B2PLYPD3) =    -0.34599785878048D+03
 SCF Done:  E(UB2PLYPD3) =  -345.566233428     A.U. after   13 cycles
 E2(B2PLYPD3) =    -0.4316525639D+00 E(B2PLYPD3) =    -0.34599788599167D+03
 SCF Done:  E(UB2PLYPD3) =  -345.566210957     A.U. after   13 cycles
 E2(B2PLYPD3) =    -0.4316774365D+00 E(B2PLYPD3) =    -0.34599788839363D+03
 SCF Done:  E(UB2PLYPD3) =  -345.566213044     A.U. after    9 cycles
 E2(B2PLYPD3) =    -0.4316753728D+00 E(B2PLYPD3) =    -0.34599788841649D+03
 SCF Done:  E(UB2PLYPD3) =  -345.566348258     A.U. after   15 cycles
 E2(B2PLYPD3) =    -0.4316179516D+00 E(B2PLYPD3) =    -0.34599796620969D+03
 SCF Done:  E(UB2PLYPD3) =  -345.566335178     A.U. after   13 cycles
 E2(B2PLYPD3) =    -0.4316520137D+00 E(B2PLYPD3) =    -0.34599798719174D+03
 SCF Done:  E(UB2PLYPD3) =  -345.566320256     A.U. after   12 cycles
 E2(B2PLYPD3) =    -0.4316679193D+00 E(B2PLYPD3) =    -0.34599798817566D+03
 SCF Done:  E(UB2PLYPD3) =  -345.566321410     A.U. after    7 cycles
 E2(B2PLYPD3) =    -0.4316667561D+00 E(B2PLYPD3) =    -0.34599798816653D+03
    -- Stationary point found.
 SCF Done:  E(UB2PLYPD3) =  -345.566397781     A.U. after   15 cycles
 E2(B2PLYPD3) =    -0.4316176278D+00 E(B2PLYPD3) =    -0.34599801540852D+03
 SCF Done:  E(UB2PLYPD3) =  -345.566394926     A.U. after   13 cycles
 E2(B2PLYPD3) =    -0.4316282686D+00 E(B2PLYPD3) =    -0.34599802319446D+03
 SCF Done:  E(UB2PLYPD3) =  -345.566393394     A.U. after   10 cycles
 E2(B2PLYPD3) =    -0.4316299742D+00 E(B2PLYPD3) =    -0.34599802336825D+03
 Optimization completed.
    -- Stationary point found.

                          Input orientation:
 ---------------------------------------------------------------------
 Center     Atomic      Atomic             Coordinates (Angstroms)
 Number     Number       Type             X           Y           Z
 ---------------------------------------------------------------------
      1          6           0       -1.263910   -0.088134   -0.809792
      2          1           0       -0.623828    0.781650   -0.961043
      3          1           0       -1.219561   -0.675936   -1.727416
      4          6           0       -0.767158   -0.908223    0.359571
      5          1           0       -0.613972   -0.364540    1.286062
      6          1           0       -1.253380   -1.867582    0.497913
      7          6           0        2.764231    0.310277    0.490862
      8          1           0        1.894513    0.968945    0.451843
      9          1           0        3.426617    0.623603    1.295022
     10          1           0        3.289957    0.334916   -0.462031
     11          8           0        2.381408   -1.016756    0.819455
     12          8           0        1.607035   -1.517522   -0.246615
     13          1           0        0.524884   -1.277014    0.050847
     14          6           0       -2.639317    0.355830   -0.586268
     15          6           0       -3.772012    0.702401   -0.362661
     16          1           0       -4.768793    1.012042   -0.178458
 ---------------------------------------------------------------------

 Alpha  occ. eigenvalues --  -19.79019 -19.78975 -10.66453 -10.65716 -10.65218
 Alpha  occ. eigenvalues --  -10.63041 -10.61653  -1.27828  -1.02716  -0.94016
 Alpha  occ. eigenvalues --   -0.85493  -0.78291  -0.75759  -0.62327  -0.61390
 Alpha  occ. eigenvalues --   -0.56671  -0.55430  -0.55170  -0.54632  -0.50312
 Alpha  occ. eigenvalues --   -0.48868  -0.45937  -0.44446  -0.38045  -0.37180
 Alpha  occ. eigenvalues --   -0.33827  -0.33028  -0.30628
 Alpha virt. eigenvalues --    0.06580   0.08609   0.10045   0.10341   0.11002
 Alpha virt. eigenvalues --    0.11218   0.12452   0.13500   0.15267   0.16576
 Alpha virt. eigenvalues --    0.18153   0.20177   0.23041   0.23664   0.25894

  Beta  occ. eigenvalues --  -19.78850 -19.77462 -10.66461 -10.65768 -10.63905
  Beta  occ. eigenvalues --  -10.62964 -10.61589  -1.26010  -0.99933  -0.92968
  Beta  occ. eigenvalues --   -0.84451  -0.77833  -0.73325  -0.61916  -0.58291
  Beta  occ. eigenvalues --   -0.55908  -0.54670  -0.54550  -0.53948  -0.48723
  Beta  occ. eigenvalues --   -0.46547  -0.45459  -0.43612  -0.36019  -0.34576
  Beta  occ. eigenvalues --   -0.32960  -0.32727
  Beta virt. eigenvalues --   -0.05476   0.06740   0.08762   0.10342   0.10542
  Beta virt. eigenvalues --    0.11108   0.11589   0.12761   0.14009   0.15291
  Beta virt. eigenvalues --    0.16793   0.18294   0.20918   0.23634   0.23920

 Mulliken charges and spin densities:
               1          2
     1  C   -0.161807  -0.029802
     2  H    0.123782   0.003964
     3  H    0.127618   0.004310
     4  C   -0.277314   0.669187
     5  H    0.130117  -0.013419
     6  H    0.134472  -0.012846
     7  C   -0.054450  -0.003786
     8  H    0.062506   0.001270
     9  H    0.101476  -0.000889
    10  H    0.084949   0.002059
    11  O   -0.185477   0.023342
    12  O   -0.221175   0.397500
    13  H    0.212971  -0.074461
    14  C   -0.044690   0.003895
    15  C   -0.203432   0.030486
    16  H    0.170453  -0.000809
 Sum of Mulliken charges =  -0.00000   1.00000

 Dipole moment (field-independent basis, Debye):
    X=             -0.8489    Y=              1.9257    Z=              0.0658  Tot=              2.1055
 Quadrupole moment (field-independent basis, Debye-Ang):
   XX=            -40.6775   YY=            -46.4406   ZZ=            -44.1417
   XY=              5.9229   XZ=             -0.9912   YZ=              1.1869

 1\1\GINC-N165\Scan\UB2PLYPD3-FC\CC-pVTZ\C5H9O2(2)\ROOT\14-Jun-2019\0\\
 # opt=(calcfc,ts,noeigentest,maxcyc=500,modredundant) uB2PLYPD3/cc-pvt
 z scf=maxcyc=500 nosymm\\Title Card Required\\0,2\C,-1.263909703,-0.08
 81341897,-0.8097924388\H,-0.6238275616,0.7816502325,-0.9610433981\H,-1
 .2195607527,-0.6759364552,-1.727415531\C,-0.7671576976,-0.9082228198,0
 .3595711222\H,-0.6139723549,-0.3645400721,1.2860621448\H,-1.2533799523
 ,-1.8675824902,0.4979133747\C,2.7642307212,0.3102773527,0.4908620931\H
 ,1.8945126181,0.9689450762,0.4518427664\H,3.4266166919,0.6236025081,1.

 Normal termination of Gaussian 16 at Fri Jun 14 16:44:07 2019.
