 Gaussian 16, Revision B.01,
 Gaussian 16:  ES64L-G16RevB.01 20-Dec-2017

 ----------------------------------------------------------------------
 # opt=(calcfc,ts,noeigentest,maxcyc=500) freq=noraman uB2PLYPD3/cc-pvt
 z
 ----------------------------------------------------------------------

 -------------------
 Title Card Required
 -------------------
 Symbolic Z-matrix:
 Charge =  0 Multiplicity = 2

 SCF Done:  E(UB2PLYPD3) =  -346.804964503     A.U. after   21 cycles
 E2(B2PLYPD3) =    -0.4393806017D+00 E(B2PLYPD3) =    -0.34724434510459D+03
 E2(B2PLYPD3) =    -0.4393806017D+00 E(B2PLYPD3) =    -0.34724434510459D+03
 SCF Done:  E(UB2PLYPD3) =  -346.804937962     A.U. after   14 cycles
 E2(B2PLYPD3) =    -0.4394307288D+00 E(B2PLYPD3) =    -0.34724436869050D+03
 SCF Done:  E(UB2PLYPD3) =  -346.804942684     A.U. after   12 cycles
 E2(B2PLYPD3) =    -0.4394265796D+00 E(B2PLYPD3) =    -0.34724436926348D+03
 SCF Done:  E(UB2PLYPD3) =  -346.804941973     A.U. after   10 cycles
 E2(B2PLYPD3) =    -0.4394272920D+00 E(B2PLYPD3) =    -0.34724436926465D+03
 Optimization completed.
    -- Stationary point found.

 1\1\GINC-N143\FTS\UB2PLYPD3-FC\CC-pVTZ\C5H11O2(2)\ROOT\24-Jun-2019\0\\
 # opt=(calcfc,ts,noeigentest,maxcyc=500) freq=noraman uB2PLYPD3/cc-pvt
 z\\Title Card Required\\0,2\C,-1.2824493306,0.3075698923,-0.5984236257
 \H,-1.3251664352,0.5701876432,-1.6565942259\H,-0.7092047698,-0.6162861
 572,-0.5191632351\C,-0.5913334826,1.4108891216,0.1621219779\H,-0.93420
 2612,2.4222419434,-0.0362543217\H,-0.428124877,1.2191277406,1.21826192
 96\C,2.6460597045,-0.4164409115,0.2334335293\H,2.0091555795,-0.2952233
 158,1.1113569689\H,2.8812812707,-1.4688890524,0.0887165822\H,3.5601862

 Normal termination of Gaussian 16 at Mon Jun 24 23:14:31 2019.

 ----------------------------------------------------------------------
 #N Geom=AllCheck Guess=TCheck SCRF=Check GenChk UB2PLYPD3(FC)/CC-pVTZ
 Freq
 ----------------------------------------------------------------------

 Structure from the checkpoint file:  "/localscratch/353443/Gau-98185.chk"
 -------------------
 Title Card Required
 -------------------
 Charge =  0 Multiplicity = 2

                         Standard orientation:
 ---------------------------------------------------------------------
 Center     Atomic      Atomic             Coordinates (Angstroms)
 Number     Number       Type             X           Y           Z
 ---------------------------------------------------------------------
      1          6           0        1.135652   -0.338471   -0.455639
      2          1           0        1.028766   -0.912983   -1.377066
      3          1           0        0.675441    0.634606   -0.628061
      4          6           0        0.424509   -1.054752    0.664451
      5          1           0        0.634288   -2.115282    0.769401
      6          1           0        0.404701   -0.531363    1.615510
      7          6           0       -2.573516    1.128976    0.403452
      8          1           0       -1.856264    1.194706    1.223403
      9          1           0       -2.712047    2.109597   -0.047226
     10          1           0       -3.522813    0.745813    0.773408
     11          8           0       -2.074203    0.305172   -0.640487
     12          8           0       -1.967995   -1.007529   -0.138235
     13          1           0       -0.885165   -1.065226    0.272375
     14          6           0        2.593050   -0.157315   -0.129628
     15          6           0        3.177482    1.019322    0.075891
     16          1           0        3.179244   -1.065189   -0.040239
     17          1           0        4.227333    1.093662    0.318741
     18          1           0        2.621037    1.943954   -0.001625
 ---------------------------------------------------------------------

 SCF Done:  E(UB2PLYPD3) =  -346.804941973     A.U. after    1 cycles
 E2(B2PLYPD3) =    -0.4394272836D+00 E(B2PLYPD3) =    -0.34724436925628D+03
 E2(B2PLYPD3) =    -0.4394272836D+00 E(B2PLYPD3) =    -0.34724436925628D+03

 The electronic state is 2-A.
 Alpha  occ. eigenvalues --  -19.78699 -19.78479 -10.66139 -10.64110 -10.62748
 Alpha  occ. eigenvalues --  -10.62479 -10.61287  -1.27413  -1.02165  -0.93423
 Alpha  occ. eigenvalues --   -0.85500  -0.77860  -0.73667  -0.64991  -0.60976
 Alpha  occ. eigenvalues --   -0.56279  -0.55684  -0.54501  -0.51952  -0.50995
 Alpha  occ. eigenvalues --   -0.48837  -0.46677  -0.44156  -0.42911  -0.41898
 Alpha  occ. eigenvalues --   -0.37272  -0.36698  -0.32146  -0.29445
 Alpha virt. eigenvalues --    0.06515   0.07508   0.09320   0.10634   0.12075
 Alpha virt. eigenvalues --    0.12282   0.13001   0.15179   0.15434   0.16120
 Alpha virt. eigenvalues --    0.17972   0.19174   0.20807   0.22919   0.25647

  Beta  occ. eigenvalues --  -19.78557 -19.76892 -10.66147 -10.62846 -10.62681
  Beta  occ. eigenvalues --  -10.62525 -10.61214  -1.25574  -0.99312  -0.92637
  Beta  occ. eigenvalues --   -0.83917  -0.77449  -0.71545  -0.64736  -0.57676
  Beta  occ. eigenvalues --   -0.55863  -0.54671  -0.54199  -0.51393  -0.49732
  Beta  occ. eigenvalues --   -0.46265  -0.46100  -0.43383  -0.42136  -0.41309
  Beta  occ. eigenvalues --   -0.35503  -0.33913  -0.31086
  Beta virt. eigenvalues --   -0.04858   0.07011   0.07625   0.09449   0.10845
  Beta virt. eigenvalues --    0.12225   0.12403   0.13589   0.15244   0.15640
  Beta virt. eigenvalues --    0.16264   0.18231   0.19345   0.21396   0.23553

 Mulliken charges and spin densities:
               1          2
     1  C   -0.139912  -0.031018
     2  H    0.113711   0.001965
     3  H    0.110041   0.006058
     4  C   -0.300877   0.650556
     5  H    0.124879  -0.012299
     6  H    0.118360  -0.013518
     7  C   -0.060306  -0.003468
     8  H    0.068821   0.000628
     9  H    0.096490  -0.000844
    10  H    0.096868   0.002208
    11  O   -0.190529   0.025318
    12  O   -0.224794   0.406245
    13  H    0.216308  -0.073786
    14  C   -0.101861  -0.003383
    15  C   -0.311207   0.045571
    16  H    0.133082   0.001634
    17  H    0.128466  -0.000439
    18  H    0.122457  -0.001428
 Sum of Mulliken charges =   0.00000   1.00000

 Dipole moment (field-independent basis, Debye):
    X=              1.2543    Y=              0.9796    Z=              1.5528  Tot=              2.2235
 Quadrupole moment (field-independent basis, Debye-Ang):
   XX=            -45.2905   YY=            -41.7109   ZZ=            -46.6701
   XY=             -5.5161   XZ=             -2.5410   YZ=              0.2905

  Exact polarizability: 117.284  -0.822  79.582   6.649  -0.924  57.156
 Approx polarizability:  95.330   3.833  92.673   7.388  -0.543  69.062

 ******    1 imaginary frequencies (negative Signs) ******

                      1                      2                      3
                      A                      A                      A
 Frequencies --  -1882.4417                24.0178                33.8681
 Red. masses --      1.1093                 2.6027                 3.0752
 Frc consts  --      2.3160                 0.0009                 0.0021
 IR Inten    --   1912.7150                 2.7500                 0.2488

                      4                      5                      6
                      A                      A                      A
 Frequencies --     88.5040                95.1915               115.7265
 Red. masses --      3.1953                 2.8069                 2.5378
 Frc consts  --      0.0147                 0.0150                 0.0200
 IR Inten    --      2.4001                 2.8127                 0.5189

                      7                      8                      9
                      A                      A                      A
 Frequencies --    183.3970               249.6085               330.6267
 Red. masses --      1.4631                 1.9272                 2.3877
 Frc consts  --      0.0290                 0.0707                 0.1538
 IR Inten    --      1.0500                 1.3964                 1.0257

                     10                     11                     12
                      A                      A                      A
 Frequencies --    420.1747               456.2541               529.8736
 Red. masses --      2.0547                 2.6773                 1.4152
 Frc consts  --      0.2137                 0.3284                 0.2341
 IR Inten    --      2.5967                 4.4419                 2.4032

                     13                     14                     15
                      A                      A                      A
 Frequencies --    561.8441               665.0040               804.2944
 Red. masses --      2.5596                 1.5053                 1.1488
 Frc consts  --      0.4760                 0.3922                 0.4379
 IR Inten    --      2.0100                16.1125                 2.4107

                     16                     17                     18
                      A                      A                      A
 Frequencies --    906.6339               918.5638               952.8723
 Red. masses --      3.0786                 2.8097                 1.3426
 Frc consts  --      1.4910                 1.3968                 0.7183
 IR Inten    --     13.3422                 3.5863                42.1824

                     19                     20                     21
                      A                      A                      A
 Frequencies --   1006.2188              1028.6721              1044.6603
 Red. masses --      1.2036                 1.2594                 1.4721
 Frc consts  --      0.7180                 0.7852                 0.9465
 IR Inten    --      8.3081                 0.8213                13.8001

                     22                     23                     24
                      A                      A                      A
 Frequencies --   1053.0622              1058.1516              1145.3930
 Red. masses --      6.0409                 2.1637                 1.2644
 Frc consts  --      3.9469                 1.4274                 0.9773
 IR Inten    --     42.3386                18.5563                 3.1452

                     25                     26                     27
                      A                      A                      A
 Frequencies --   1177.3351              1194.9821              1215.9983
 Red. masses --      1.2734                 1.8531                 1.5745
 Frc consts  --      1.0400                 1.5591                 1.3717
 IR Inten    --      2.2902                 2.0350                 4.3364

                     28                     29                     30
                      A                      A                      A
 Frequencies --   1301.6356              1323.4732              1334.7674
 Red. masses --      1.1558                 1.3260                 1.2965
 Frc consts  --      1.1538                 1.3684                 1.3609
 IR Inten    --      0.2507                 1.4137                 0.6331

                     31                     32                     33
                      A                      A                      A
 Frequencies --   1452.0076              1458.7237              1461.8663
 Red. masses --      1.0654                 1.1372                 1.1822
 Frc consts  --      1.3234                 1.4257                 1.4885
 IR Inten    --     13.6727                 6.4506                 1.1153

                     34                     35                     36
                      A                      A                      A
 Frequencies --   1474.7390              1482.5673              1496.3355
 Red. masses --      1.1326                 1.0566                 1.0989
 Frc consts  --      1.4513                 1.3683                 1.4497
 IR Inten    --      1.2134                 8.4745                10.8017

                     37                     38                     39
                      A                      A                      A
 Frequencies --   1518.1345              1696.1581              3035.3408
 Red. masses --      1.0520                 4.2799                 1.0313
 Frc consts  --      1.4285                 7.2547                 5.5984
 IR Inten    --      8.7479                10.1394                35.8929

                     40                     41                     42
                      A                      A                      A
 Frequencies --   3054.6852              3098.5933              3100.0700
 Red. masses --      1.0585                 1.0916                 1.0625
 Frc consts  --      5.8196                 6.1754                 6.0164
 IR Inten    --      7.4516                 7.1290                13.5156

                     43                     44                     45
                      A                      A                      A
 Frequencies --   3113.0873              3145.7964              3151.8087
 Red. masses --      1.1026                 1.1051                 1.0620
 Frc consts  --      6.2959                 6.4432                 6.2157
 IR Inten    --     43.0931                14.6641                13.6314

                     46                     47                     48
                      A                      A                      A
 Frequencies --   3161.5314              3185.0332              3243.3451
 Red. masses --      1.0876                 1.1121                 1.1159
 Frc consts  --      6.4047                 6.6468                 6.9161
 IR Inten    --      9.0509                13.7724                13.6326

 - Thermochemistry -
 -------------------
 Temperature   298.150 Kelvin.  Pressure   1.00000 Atm.
 Atom     1 has atomic number  6 and mass  12.00000

 Molecular mass:   103.07590 amu.
 Principal axes and moments of inertia in atomic units:
                           1         2         3
     Eigenvalues --   374.310681841.516252040.25673
           X            0.99987  -0.01265  -0.00963
           Y            0.01274   0.99988   0.00920
           Z            0.00951  -0.00932   0.99991
 This molecule is an asymmetric top.
 Rotational symmetry number  1.
 Rotational temperatures (Kelvin)      0.23140     0.04703     0.04245
 Rotational constants (GHZ):           4.82151     0.98003     0.88457
    1 imaginary frequencies ignored.
 Zero-point vibrational energy     386098.5 (Joules/Mol)
                                   92.27976 (Kcal/Mol)
 Warning -- explicit consideration of  12 degrees of freedom as
           vibrations may cause significant error
 Vibrational temperatures:     34.56    48.73   127.34   136.96   166.50
          (Kelvin)            263.87   359.13   475.70   604.54   656.45
                              762.37   808.37   956.79  1157.20  1304.44
                             1321.61  1370.97  1447.72  1480.03  1503.03
                             1515.12  1522.44  1647.97  1693.92  1719.31
                             1749.55  1872.76  1904.18  1920.43  2089.12
                             2098.78  2103.30  2121.82  2133.08  2152.89
                             2184.26  2440.39  4367.18  4395.01  4458.18
                             4460.31  4479.04  4526.10  4534.75  4548.74
                             4582.55  4666.45

 Zero-point correction=                           0.147057 (Hartree/Particle)
 Thermal correction to Energy=                    0.156901
 Thermal correction to Enthalpy=                  0.157845
 Thermal correction to Gibbs Free Energy=         0.109412
 Sum of electronic and zero-point Energies=           -347.097312
 Sum of electronic and thermal Energies=              -347.087469
 Sum of electronic and thermal Enthalpies=            -347.086524
 Sum of electronic and thermal Free Energies=         -347.134958

                     E (Thermal)             CV                S
                      KCal/Mol        Cal/Mol-Kelvin    Cal/Mol-Kelvin
 Total                   98.457             32.604            101.936
 Electronic               0.000              0.000              1.377
 Translational            0.889              2.981             39.808
 Rotational               0.889              2.981             28.732
 Vibrational             96.679             26.642             32.018
 Vibration     1          0.593              1.985              6.271
 Vibration     2          0.594              1.983              5.589
 Vibration     3          0.601              1.957              3.693
 Vibration     4          0.603              1.953              3.550
 Vibration     5          0.608              1.936              3.171
 Vibration     6          0.631              1.862              2.294
 Vibration     7          0.662              1.763              1.733
 Vibration     8          0.713              1.614              1.257
 Vibration     9          0.783              1.426              0.891
 Vibration    10          0.814              1.347              0.777
 Vibration    11          0.885              1.184              0.587
 Vibration    12          0.918              1.114              0.520

 Optimization completed.
    -- Stationary point found.
 Normal termination of Gaussian 16 at Tue Jun 25 01:08:43 2019.
