 Gaussian 16, Revision B.01,
 Gaussian 16:  ES64L-G16RevB.01 20-Dec-2017

 ----------------------------------------------------------------------
 # opt=(calcfc,ts,noeigentest,maxcyc=500,modredundant) uB2PLYPD3/cc-pvt
 z scf=maxcyc=500 nosymm
 ----------------------------------------------------------------------

 -------------------
 Title Card Required
 -------------------
 Symbolic Z-matrix:
 Charge =  0 Multiplicity = 2

 SCF Done:  E(UB2PLYPD3) =  -346.804270927     A.U. after   21 cycles
 E2(B2PLYPD3) =    -0.4389994829D+00 E(B2PLYPD3) =    -0.34724327040987D+03
 E2(B2PLYPD3) =    -0.4389994829D+00 E(B2PLYPD3) =    -0.34724327040987D+03

  Exact polarizability: 137.183   7.860  63.349  -2.959   3.745  61.831
 Approx polarizability: 109.940   6.614  74.057   1.595   6.720  73.647

 Optimization completed.
    -- Stationary point found.
 SCF Done:  E(UB2PLYPD3) =  -346.804279198     A.U. after   14 cycles
 E2(B2PLYPD3) =    -0.4389650622D+00 E(B2PLYPD3) =    -0.34724324426066D+03
 SCF Done:  E(UB2PLYPD3) =  -346.804294388     A.U. after   12 cycles
 E2(B2PLYPD3) =    -0.4389558281D+00 E(B2PLYPD3) =    -0.34724325021576D+03
 SCF Done:  E(UB2PLYPD3) =  -346.804292282     A.U. after    9 cycles
 E2(B2PLYPD3) =    -0.4389579572D+00 E(B2PLYPD3) =    -0.34724325023916D+03
 Optimization completed.
 SCF Done:  E(UB2PLYPD3) =  -346.804264840     A.U. after   13 cycles
 E2(B2PLYPD3) =    -0.4389350090D+00 E(B2PLYPD3) =    -0.34724319984923D+03
 SCF Done:  E(UB2PLYPD3) =  -346.804294877     A.U. after   12 cycles
 E2(B2PLYPD3) =    -0.4389125431D+00 E(B2PLYPD3) =    -0.34724320742041D+03
 SCF Done:  E(UB2PLYPD3) =  -346.804292242     A.U. after    9 cycles
 E2(B2PLYPD3) =    -0.4389152110D+00 E(B2PLYPD3) =    -0.34724320745266D+03
 SCF Done:  E(UB2PLYPD3) =  -346.804257449     A.U. after   13 cycles
 E2(B2PLYPD3) =    -0.4388982688D+00 E(B2PLYPD3) =    -0.34724315571816D+03
 SCF Done:  E(UB2PLYPD3) =  -346.804286696     A.U. after   12 cycles
 E2(B2PLYPD3) =    -0.4388767436D+00 E(B2PLYPD3) =    -0.34724316343969D+03
 SCF Done:  E(UB2PLYPD3) =  -346.804284821     A.U. after    9 cycles
 E2(B2PLYPD3) =    -0.4388786337D+00 E(B2PLYPD3) =    -0.34724316345486D+03
 E2(B2PLYPD3) =    -0.4388635664D+00 E(B2PLYPD3) =    -0.34724312070961D+03
 E2(B2PLYPD3) =    -0.4388462285D+00 E(B2PLYPD3) =    -0.34724312750182D+03
 E2(B2PLYPD3) =    -0.4388324550D+00 E(B2PLYPD3) =    -0.34724309803334D+03
 E2(B2PLYPD3) =    -0.4388201708D+00 E(B2PLYPD3) =    -0.34724310372894D+03
 E2(B2PLYPD3) =    -0.4388077024D+00 E(B2PLYPD3) =    -0.34724309521111D+03
 E2(B2PLYPD3) =    -0.4388004997D+00 E(B2PLYPD3) =    -0.34724310009321D+03
 E2(B2PLYPD3) =    -0.4388008330D+00 E(B2PLYPD3) =    -0.34724310010466D+03
 E2(B2PLYPD3) =    -0.4387926856D+00 E(B2PLYPD3) =    -0.34724311833474D+03
 E2(B2PLYPD3) =    -0.4387913606D+00 E(B2PLYPD3) =    -0.34724312295496D+03
 E2(B2PLYPD3) =    -0.4390454855D+00 E(B2PLYPD3) =    -0.34724313666352D+03
 E2(B2PLYPD3) =    -0.4389973124D+00 E(B2PLYPD3) =    -0.34724311748294D+03
 E2(B2PLYPD3) =    -0.4390197071D+00 E(B2PLYPD3) =    -0.34724313122036D+03
 E2(B2PLYPD3) =    -0.4390276380D+00 E(B2PLYPD3) =    -0.34724313203368D+03
 E2(B2PLYPD3) =    -0.4390284127D+00 E(B2PLYPD3) =    -0.34724313213280D+03
 E2(B2PLYPD3) =    -0.4390283798D+00 E(B2PLYPD3) =    -0.34724313231403D+03
 E2(B2PLYPD3) =    -0.4390288728D+00 E(B2PLYPD3) =    -0.34724313236620D+03
 E2(B2PLYPD3) =    -0.4390293499D+00 E(B2PLYPD3) =    -0.34724313238741D+03
 E2(B2PLYPD3) =    -0.4389746985D+00 E(B2PLYPD3) =    -0.34724315547507D+03
 E2(B2PLYPD3) =    -0.4390075514D+00 E(B2PLYPD3) =    -0.34724317852369D+03
 SCF Done:  E(UB2PLYPD3) =  -346.804153439     A.U. after   12 cycles
 E2(B2PLYPD3) =    -0.4390269931D+00 E(B2PLYPD3) =    -0.34724318043179D+03
 SCF Done:  E(UB2PLYPD3) =  -346.804153869     A.U. after    9 cycles
 E2(B2PLYPD3) =    -0.4390266088D+00 E(B2PLYPD3) =    -0.34724318047744D+03
 SCF Done:  E(UB2PLYPD3) =  -346.804153352     A.U. after    9 cycles
 E2(B2PLYPD3) =    -0.4390271608D+00 E(B2PLYPD3) =    -0.34724318051287D+03
 SCF Done:  E(UB2PLYPD3) =  -346.804249512     A.U. after   14 cycles
 E2(B2PLYPD3) =    -0.4389708170D+00 E(B2PLYPD3) =    -0.34724322032920D+03
 SCF Done:  E(UB2PLYPD3) =  -346.804234935     A.U. after   13 cycles
 E2(B2PLYPD3) =    -0.4390078675D+00 E(B2PLYPD3) =    -0.34724324280224D+03
 SCF Done:  E(UB2PLYPD3) =  -346.804218789     A.U. after   11 cycles
 E2(B2PLYPD3) =    -0.4390253954D+00 E(B2PLYPD3) =    -0.34724324418483D+03
 SCF Done:  E(UB2PLYPD3) =  -346.804219888     A.U. after    6 cycles
 E2(B2PLYPD3) =    -0.4390242982D+00 E(B2PLYPD3) =    -0.34724324418657D+03
    -- Stationary point found.
 SCF Done:  E(UB2PLYPD3) =  -346.804285309     A.U. after   14 cycles
 E2(B2PLYPD3) =    -0.4389753322D+00 E(B2PLYPD3) =    -0.34724326064071D+03
 SCF Done:  E(UB2PLYPD3) =  -346.804276297     A.U. after   12 cycles
 E2(B2PLYPD3) =    -0.4389943079D+00 E(B2PLYPD3) =    -0.34724327060441D+03
 SCF Done:  E(UB2PLYPD3) =  -346.804270715     A.U. after   10 cycles
 E2(B2PLYPD3) =    -0.4390001933D+00 E(B2PLYPD3) =    -0.34724327090823D+03
 Optimization completed.
    -- Stationary point found.

                          Input orientation:
 ---------------------------------------------------------------------
 Center     Atomic      Atomic             Coordinates (Angstroms)
 Number     Number       Type             X           Y           Z
 ---------------------------------------------------------------------
      1          6           0       -1.176892   -0.249937    0.386303
      2          1           0       -0.582972   -1.037900   -0.080915
      3          1           0       -1.142973   -0.412715    1.463589
      4          6           0       -0.591354    1.097265    0.044351
      5          1           0       -0.430228    1.297344   -1.011652
      6          1           0       -1.022495    1.941559    0.573122
      7          6           0        2.857047   -0.007698   -0.857525
      8          1           0        1.948294   -0.501415   -1.206962
      9          1           0        3.515458    0.191160   -1.700631
     10          1           0        3.360703   -0.637385   -0.126070
     11          8           0        2.561864    1.266185   -0.305304
     12          8           0        1.796730    1.062286    0.860098
     13          1           0        0.697071    1.104780    0.495542
     14          6           0       -2.601680   -0.342271   -0.088384
     15          6           0       -3.658182   -0.438624    0.713105
     16          1           0       -2.749981   -0.300905   -1.161799
     17          1           0       -4.662578   -0.488631    0.319058
     18          1           0       -3.546582   -0.475908    1.788560
 ---------------------------------------------------------------------

 Alpha  occ. eigenvalues --  -19.78529 -19.78452 -10.66100 -10.64164 -10.63038
 Alpha  occ. eigenvalues --  -10.62991 -10.61540  -1.27324  -1.02109  -0.93718
 Alpha  occ. eigenvalues --   -0.85685  -0.77760  -0.74047  -0.65250  -0.60855
 Alpha  occ. eigenvalues --   -0.56541  -0.55586  -0.54431  -0.52431  -0.50822
 Alpha  occ. eigenvalues --   -0.49002  -0.46928  -0.44204  -0.43321  -0.42227
 Alpha  occ. eigenvalues --   -0.36909  -0.36621  -0.32377  -0.29626
 Alpha virt. eigenvalues --    0.06138   0.07383   0.09879   0.10380   0.11233
 Alpha virt. eigenvalues --    0.12347   0.12881   0.15396   0.15588   0.15799
 Alpha virt. eigenvalues --    0.17075   0.19099   0.21533   0.22870   0.23935

  Beta  occ. eigenvalues --  -19.78399 -19.76856 -10.66108 -10.63079 -10.62943
  Beta  occ. eigenvalues --  -10.62892 -10.61464  -1.25481  -0.99249  -0.92955
  Beta  occ. eigenvalues --   -0.84133  -0.77356  -0.71866  -0.65047  -0.57561
  Beta  occ. eigenvalues --   -0.56174  -0.54481  -0.54131  -0.51840  -0.49697
  Beta  occ. eigenvalues --   -0.46713  -0.45874  -0.43258  -0.42725  -0.41737
  Beta  occ. eigenvalues --   -0.35417  -0.33688  -0.31341
  Beta virt. eigenvalues --   -0.04923   0.06614   0.07490   0.09980   0.10485
  Beta virt. eigenvalues --    0.11577   0.12490   0.13427   0.15495   0.15690
  Beta virt. eigenvalues --    0.16002   0.17329   0.19257   0.22192   0.23352

 Mulliken charges and spin densities:
               1          2
     1  C   -0.150776  -0.032907
     2  H    0.109078   0.004174
     3  H    0.106731   0.004837
     4  C   -0.290706   0.653817
     5  H    0.122204  -0.013695
     6  H    0.128190  -0.013270
     7  C   -0.052886  -0.003841
     8  H    0.061638   0.001423
     9  H    0.099153  -0.000976
    10  H    0.084210   0.002131
    11  O   -0.187769   0.023690
    12  O   -0.222916   0.408715
    13  H    0.217141  -0.074890
    14  C   -0.101713  -0.006234
    15  C   -0.308869   0.047344
    16  H    0.133617   0.001657
    17  H    0.129148  -0.000408
    18  H    0.124524  -0.001566
 Sum of Mulliken charges =  -0.00000   1.00000

 Dipole moment (field-independent basis, Debye):
    X=             -1.4813    Y=             -1.5741    Z=             -1.3787  Tot=              2.5637
 Quadrupole moment (field-independent basis, Debye-Ang):
   XX=            -44.8436   YY=            -48.7751   ZZ=            -43.0965
   XY=             -5.8073   XZ=             -4.0787   YZ=             -0.4684

 1\1\GINC-N83\Scan\UB2PLYPD3-FC\CC-pVTZ\C5H11O2(2)\ROOT\21-Jun-2019\0\\
 # opt=(calcfc,ts,noeigentest,maxcyc=500,modredundant) uB2PLYPD3/cc-pvt
 z scf=maxcyc=500 nosymm\\Title Card Required\\0,2\C,-1.1768917815,-0.2
 499365298,0.3863034795\H,-0.5829723714,-1.0378995834,-0.0809153326\H,-
 1.1429728806,-0.4127148304,1.4635887111\C,-0.5913538145,1.097265494,0.
 0443514817\H,-0.4302275916,1.2973437838,-1.0116517871\H,-1.0224952862,
 1.9415593315,0.5731220591\C,2.8570474667,-0.0076980627,-0.8575253516\H
 ,1.94829361,-0.5014152833,-1.2069616632\H,3.5154584795,0.1911601327,-1

 Normal termination of Gaussian 16 at Fri Jun 21 06:03:53 2019.
