 Gaussian 16, Revision B.01,
 Gaussian 16:  ES64L-G16RevB.01 20-Dec-2017

 ----------------------------------------------------------------------
 # opt=(calcfc,ts,noeigentest,maxcyc=500) freq=noraman uB2PLYPD3/cc-pvt
 z
 ----------------------------------------------------------------------

 -------------------
 Title Card Required
 -------------------
 Symbolic Z-matrix:
 Charge =  0 Multiplicity = 2

 SCF Done:  E(UB2PLYPD3) =  -346.788322560     A.U. after   24 cycles
 E2(B2PLYPD3) =    -0.4411101711D+00 E(B2PLYPD3) =    -0.34722943273138D+03
 E2(B2PLYPD3) =    -0.4411101711D+00 E(B2PLYPD3) =    -0.34722943273138D+03
 SCF Done:  E(UB2PLYPD3) =  -346.799699892     A.U. after   20 cycles
 E2(B2PLYPD3) =    -0.4398144753D+00 E(B2PLYPD3) =    -0.34723951436720D+03
 SCF Done:  E(UB2PLYPD3) =  -346.808990751     A.U. after   18 cycles
 E2(B2PLYPD3) =    -0.4387167219D+00 E(B2PLYPD3) =    -0.34724770747285D+03
 SCF Done:  E(UB2PLYPD3) =  -346.807280757     A.U. after   21 cycles
 E2(B2PLYPD3) =    -0.4400868155D+00 E(B2PLYPD3) =    -0.34724736757283D+03
 SCF Done:  E(UB2PLYPD3) =  -346.807434664     A.U. after   21 cycles
 E2(B2PLYPD3) =    -0.4403422260D+00 E(B2PLYPD3) =    -0.34724777689024D+03
 SCF Done:  E(UB2PLYPD3) =  -346.807791140     A.U. after   19 cycles
 E2(B2PLYPD3) =    -0.4402620372D+00 E(B2PLYPD3) =    -0.34724805317704D+03
 SCF Done:  E(UB2PLYPD3) =  -346.807485371     A.U. after   19 cycles
 E2(B2PLYPD3) =    -0.4407231497D+00 E(B2PLYPD3) =    -0.34724820852097D+03
 SCF Done:  E(UB2PLYPD3) =  -346.807849772     A.U. after   16 cycles
 E2(B2PLYPD3) =    -0.4406003191D+00 E(B2PLYPD3) =    -0.34724845009142D+03
 SCF Done:  E(UB2PLYPD3) =  -346.808789887     A.U. after   20 cycles
 E2(B2PLYPD3) =    -0.4407068822D+00 E(B2PLYPD3) =    -0.34724949676928D+03
 SCF Done:  E(UB2PLYPD3) =  -346.812015612     A.U. after   22 cycles
 E2(B2PLYPD3) =    -0.4400663169D+00 E(B2PLYPD3) =    -0.34725208192854D+03
 E2(B2PLYPD3) =    -0.4400847331D+00 E(B2PLYPD3) =    -0.34725470798992D+03
 E2(B2PLYPD3) =    -0.4399361946D+00 E(B2PLYPD3) =    -0.34725487172810D+03
 E2(B2PLYPD3) =    -0.4402723739D+00 E(B2PLYPD3) =    -0.34725524369230D+03
 E2(B2PLYPD3) =    -0.4404790752D+00 E(B2PLYPD3) =    -0.34725512356710D+03
 E2(B2PLYPD3) =    -0.4403175055D+00 E(B2PLYPD3) =    -0.34725543074285D+03
 E2(B2PLYPD3) =    -0.4407677938D+00 E(B2PLYPD3) =    -0.34725525349387D+03
 E2(B2PLYPD3) =    -0.4404261526D+00 E(B2PLYPD3) =    -0.34725555970555D+03
 E2(B2PLYPD3) =    -0.4406456221D+00 E(B2PLYPD3) =    -0.34725554235416D+03
 E2(B2PLYPD3) =    -0.4403894123D+00 E(B2PLYPD3) =    -0.34725566224201D+03
 E2(B2PLYPD3) =    -0.4404627787D+00 E(B2PLYPD3) =    -0.34725567414960D+03
 E2(B2PLYPD3) =    -0.4402183052D+00 E(B2PLYPD3) =    -0.34725530945867D+03
 E2(B2PLYPD3) =    -0.4409129092D+00 E(B2PLYPD3) =    -0.34725436755577D+03
 SCF Done:  E(UB2PLYPD3) =  -346.814875449     A.U. after   19 cycles
 E2(B2PLYPD3) =    -0.4404772467D+00 E(B2PLYPD3) =    -0.34725535269610D+03
 SCF Done:  E(UB2PLYPD3) =  -346.814403620     A.U. after   22 cycles
 E2(B2PLYPD3) =    -0.4408226521D+00 E(B2PLYPD3) =    -0.34725522627191D+03
 SCF Done:  E(UB2PLYPD3) =  -346.815245470     A.U. after   17 cycles
 E2(B2PLYPD3) =    -0.4404239588D+00 E(B2PLYPD3) =    -0.34725566942841D+03
 SCF Done:  E(UB2PLYPD3) =  -346.814860865     A.U. after   20 cycles
 E2(B2PLYPD3) =    -0.4406643495D+00 E(B2PLYPD3) =    -0.34725552521420D+03
 SCF Done:  E(UB2PLYPD3) =  -346.815210235     A.U. after   20 cycles
 E2(B2PLYPD3) =    -0.4404650804D+00 E(B2PLYPD3) =    -0.34725567531577D+03
 SCF Done:  E(UB2PLYPD3) =  -346.815224378     A.U. after   15 cycles
 E2(B2PLYPD3) =    -0.4404596748D+00 E(B2PLYPD3) =    -0.34725568405259D+03
 SCF Done:  E(UB2PLYPD3) =  -346.815236839     A.U. after   13 cycles
 E2(B2PLYPD3) =    -0.4404493027D+00 E(B2PLYPD3) =    -0.34725568614126D+03
 SCF Done:  E(UB2PLYPD3) =  -346.815238675     A.U. after   11 cycles
 E2(B2PLYPD3) =    -0.4404475540D+00 E(B2PLYPD3) =    -0.34725568622874D+03
 SCF Done:  E(UB2PLYPD3) =  -346.815239832     A.U. after   10 cycles
 E2(B2PLYPD3) =    -0.4404464074D+00 E(B2PLYPD3) =    -0.34725568623902D+03
 Optimization completed.
    -- Stationary point found.
 Normal termination of Gaussian 16 at Wed Jun  5 10:30:45 2019.

 ----------------------------------------------------------------------
 #N Geom=AllCheck Guess=TCheck SCRF=Check GenChk UB2PLYPD3(FC)/CC-pVTZ
 Freq
 ----------------------------------------------------------------------

 Structure from the checkpoint file:  "/localscratch/339753/Gau-50218.chk"
 -------------------
 Title Card Required
 -------------------
 Charge =  0 Multiplicity = 2

                         Standard orientation:
 ---------------------------------------------------------------------
 Center     Atomic      Atomic             Coordinates (Angstroms)
 Number     Number       Type             X           Y           Z
 ---------------------------------------------------------------------
      1          6           0        0.918571    0.411690    0.344862
      2          1           0        0.806645    0.134448    1.392006
      3          6           0       -2.731333   -0.417611    0.682365
      4          1           0       -2.068565   -0.278853    1.537757
      5          1           0       -3.616639    0.204909    0.792230
      6          1           0       -3.011954   -1.465729    0.598746
      7          8           0       -2.103610    0.025200   -0.515083
      8          8           0       -1.009278   -0.804019   -0.764062
      9          1           0       -0.037855   -0.255497   -0.215305
     10          6           0        2.126902   -0.127821   -0.268531
     11          6           0        2.914088   -1.055653    0.286686
     12          1           0        2.368605    0.241345   -1.259475
     13          1           0        3.784440   -1.436976   -0.225660
     14          1           0        2.704246   -1.453052    1.270567
     15          6           0        0.543186    1.840913    0.034827
     16          1           0       -0.486310    2.049495    0.320097
     17          1           0        1.191321    2.537619    0.571736
     18          1           0        0.640687    2.043720   -1.030791
 ---------------------------------------------------------------------

 SCF Done:  E(UB2PLYPD3) =  -346.815239832     A.U. after    1 cycles
 E2(B2PLYPD3) =    -0.4404464065D+00 E(B2PLYPD3) =    -0.34725568623809D+03
 E2(B2PLYPD3) =    -0.4404464065D+00 E(B2PLYPD3) =    -0.34725568623809D+03

 The electronic state is 2-A.
 Alpha  occ. eigenvalues --  -19.78987 -19.78553 -10.66156 -10.63738 -10.62612
 Alpha  occ. eigenvalues --  -10.62081 -10.61078  -1.27890  -1.01496  -0.93606
 Alpha  occ. eigenvalues --   -0.85511  -0.77812  -0.73688  -0.65523  -0.60745
 Alpha  occ. eigenvalues --   -0.56057  -0.54776  -0.54185  -0.52897  -0.50944
 Alpha  occ. eigenvalues --   -0.47394  -0.45317  -0.44563  -0.43971  -0.41590
 Alpha  occ. eigenvalues --   -0.39080  -0.36380  -0.34106  -0.27759
 Alpha virt. eigenvalues --    0.06336   0.07803   0.09800   0.10333   0.11350
 Alpha virt. eigenvalues --    0.13463   0.14190   0.15292   0.15918   0.16750
 Alpha virt. eigenvalues --    0.17999   0.18554   0.21381   0.23624   0.25376

  Beta  occ. eigenvalues --  -19.78735 -19.76716 -10.66170 -10.62997 -10.62759
  Beta  occ. eigenvalues --  -10.61538 -10.61128  -1.25724  -0.98201  -0.92558
  Beta  occ. eigenvalues --   -0.84553  -0.77299  -0.72270  -0.64780  -0.57638
  Beta  occ. eigenvalues --   -0.54679  -0.54369  -0.53649  -0.52476  -0.49355
  Beta  occ. eigenvalues --   -0.45230  -0.44613  -0.43548  -0.42819  -0.41327
  Beta  occ. eigenvalues --   -0.36421  -0.34946  -0.29734
  Beta virt. eigenvalues --   -0.05216   0.07521   0.08016   0.09799   0.10556
  Beta virt. eigenvalues --    0.11444   0.14128   0.14296   0.15425   0.16001
  Beta virt. eigenvalues --    0.16866   0.18101   0.18826   0.21779   0.23993

 Mulliken charges and spin densities:
               1          2
     1  C   -0.149402   0.453766
     2  H    0.103008  -0.008279
     3  C   -0.063535  -0.006039
     4  H    0.070431   0.002304
     5  H    0.097288  -0.001201
     6  H    0.097000   0.003091
     7  O   -0.180742   0.047425
     8  O   -0.219731   0.482248
     9  H    0.209282  -0.078077
    10  C   -0.086068  -0.225680
    11  C   -0.294321   0.340051
    12  H    0.134420   0.007803
    13  H    0.130611  -0.014993
    14  H    0.122409  -0.013389
    15  C   -0.289149  -0.023635
    16  H    0.112234   0.003698
    17  H    0.103139   0.029014
    18  H    0.103127   0.001894
 Sum of Mulliken charges =  -0.00000   1.00000

 Dipole moment (field-independent basis, Debye):
    X=              0.5532    Y=              0.5430    Z=              2.0773  Tot=              2.2172
 Quadrupole moment (field-independent basis, Debye-Ang):
   XX=            -40.3113   YY=            -45.1310   ZZ=            -44.4757
   XY=             -0.5876   XZ=             -4.9334   YZ=             -1.6645

  Exact polarizability: 144.955  -4.948  73.912   5.104  -2.063  63.023
 Approx polarizability: 115.763  -7.451  80.963   8.104  -1.627  76.127

 ******    1 imaginary frequencies (negative Signs) ******

                      1                      2                      3
                      A                      A                      A
 Frequencies --  -1893.0059                20.5893                75.9515
 Red. masses --      1.1366                 3.5776                 3.2428
 Frc consts  --      2.3997                 0.0009                 0.0110
 IR Inten    --   3520.8145                 2.6771                 1.6876

                      4                      5                      6
                      A                      A                      A
 Frequencies --     83.4833               138.2862               152.5415
 Red. masses --      2.8037                 1.7983                 1.7547
 Frc consts  --      0.0115                 0.0203                 0.0241
 IR Inten    --      1.1865                 1.6509                 1.3265

                      7                      8                      9
                      A                      A                      A
 Frequencies --    193.2484               195.3438               268.7662
 Red. masses --      1.4419                 1.3445                 2.4200
 Frc consts  --      0.0317                 0.0302                 0.1030
 IR Inten    --      0.6513                 5.3609                 1.8943

                     10                     11                     12
                      A                      A                      A
 Frequencies --    310.3538               465.5709               478.3708
 Red. masses --      2.5603                 2.7866                 3.3148
 Frc consts  --      0.1453                 0.3559                 0.4469
 IR Inten    --      0.1998                 4.7809                 4.0089

                     13                     14                     15
                      A                      A                      A
 Frequencies --    548.0271               666.6818               833.8968
 Red. masses --      3.3648                 1.4133                 1.1858
 Frc consts  --      0.5954                 0.3701                 0.4858
 IR Inten    --     14.3944                23.7446                 6.6020

                     16                     17                     18
                      A                      A                      A
 Frequencies --    882.0847               933.2858               947.8292
 Red. masses --      1.9391                 4.4847                 1.3599
 Frc consts  --      0.8889                 2.3015                 0.7198
 IR Inten    --      1.7004                14.5137                42.1549

                     19                     20                     21
                      A                      A                      A
 Frequencies --   1002.0535              1034.0894              1062.5258
 Red. masses --      1.1909                 1.1483                 7.2244
 Frc consts  --      0.7045                 0.7235                 4.8054
 IR Inten    --      2.6053                 9.9967                63.6929

                     22                     23                     24
                      A                      A                      A
 Frequencies --   1092.5038              1117.6740              1173.8611
 Red. masses --      1.9005                 2.0341                 1.2729
 Frc consts  --      1.3365                 1.4971                 1.0335
 IR Inten    --     17.1842                12.0605                 2.0262

                     25                     26                     27
                      A                      A                      A
 Frequencies --   1212.0499              1214.3052              1232.0480
 Red. masses --      1.4706                 1.6145                 1.3342
 Frc consts  --      1.2729                 1.4026                 1.1932
 IR Inten    --      0.6190                 3.0436                 4.8496

                     28                     29                     30
                      A                      A                      A
 Frequencies --   1324.3630              1347.7263              1417.2058
 Red. masses --      1.2778                 1.3666                 1.2223
 Frc consts  --      1.3205                 1.4626                 1.4464
 IR Inten    --      2.3775                 1.7166                 7.8663

                     31                     32                     33
                      A                      A                      A
 Frequencies --   1432.2484              1457.5543              1475.9300
 Red. masses --      1.1054                 1.1479                 1.2251
 Frc consts  --      1.3360                 1.4368                 1.5723
 IR Inten    --      0.5118                 9.3681                 8.8304

                     34                     35                     36
                      A                      A                      A
 Frequencies --   1482.6408              1500.6426              1502.7825
 Red. masses --      1.0528                 1.0679                 1.0608
 Frc consts  --      1.3635                 1.4169                 1.4115
 IR Inten    --      8.3140                 3.8773                 6.9626

                     37                     38                     39
                      A                      A                      A
 Frequencies --   1515.1447              1680.8337              3035.3782
 Red. masses --      1.0496                 3.9176                 1.0408
 Frc consts  --      1.4196                 6.5212                 5.6501
 IR Inten    --     11.7178                 1.5724                23.2614

                     40                     41                     42
                      A                      A                      A
 Frequencies --   3038.3036              3095.3949              3105.7003
 Red. masses --      1.0309                 1.0859                 1.0918
 Frc consts  --      5.6069                 6.1303                 6.2044
 IR Inten    --     42.8634                 5.0590                11.4608

                     43                     44                     45
                      A                      A                      A
 Frequencies --   3117.2007              3131.9614              3148.8784
 Red. masses --      1.1032                 1.1011                 1.1054
 Frc consts  --      6.3158                 6.3635                 6.4577
 IR Inten    --     40.5166                15.9709                14.0069

                     46                     47                     48
                      A                      A                      A
 Frequencies --   3154.9977              3162.5055              3251.2525
 Red. masses --      1.0706                 1.0776                 1.1161
 Frc consts  --      6.2788                 6.3501                 6.9511
 IR Inten    --     16.1941                 7.9697                 9.8853

 - Thermochemistry -
 -------------------
 Temperature   298.150 Kelvin.  Pressure   1.00000 Atm.
 Atom     1 has atomic number  6 and mass  12.00000

 Molecular mass:   103.07590 amu.
 Principal axes and moments of inertia in atomic units:
                           1         2         3
     Eigenvalues --   437.731321555.585371763.10850
           X            0.99981  -0.00430  -0.01901
           Y            0.00345   0.99899  -0.04479
           Z            0.01918   0.04471   0.99882
 This molecule is an asymmetric top.
 Rotational symmetry number  1.
 Warning -- assumption of classical behavior for rotation
           may cause significant error
 Rotational temperatures (Kelvin)      0.19787     0.05568     0.04913
 Rotational constants (GHZ):           4.12294     1.16017     1.02361
    1 imaginary frequencies ignored.
 Zero-point vibrational energy     387076.1 (Joules/Mol)
                                   92.51340 (Kcal/Mol)
 Warning -- explicit consideration of  12 degrees of freedom as
           vibrations may cause significant error
 Vibrational temperatures:     29.62   109.28   120.11   198.96   219.47
          (Kelvin)            278.04   281.06   386.69   446.53   669.85
                              688.27   788.49   959.21  1199.79  1269.12
                             1342.79  1363.71  1441.73  1487.82  1528.74
                             1571.87  1608.08  1688.92  1743.87  1747.11
                             1772.64  1905.46  1939.08  2039.04  2060.69
                             2097.10  2123.53  2133.19  2159.09  2162.17
                             2179.96  2418.34  4367.23  4371.44  4453.58
                             4468.41  4484.96  4506.19  4530.53  4539.34
                             4550.14  4677.83

 Zero-point correction=                           0.147429 (Hartree/Particle)
 Thermal correction to Energy=                    0.157325
 Thermal correction to Enthalpy=                  0.158270
 Thermal correction to Gibbs Free Energy=         0.110490
 Sum of electronic and zero-point Energies=           -347.108257
 Sum of electronic and thermal Energies=              -347.098361
 Sum of electronic and thermal Enthalpies=            -347.097417
 Sum of electronic and thermal Free Energies=         -347.145197

                     E (Thermal)             CV                S
                      KCal/Mol        Cal/Mol-Kelvin    Cal/Mol-Kelvin
 Total                   98.723             32.794            100.562
 Electronic               0.000              0.000              1.377
 Translational            0.889              2.981             39.808
 Rotational               0.889              2.981             28.575
 Vibrational             96.946             26.832             30.801
 Vibration     1          0.593              1.986              6.577
 Vibration     2          0.599              1.965              3.993
 Vibration     3          0.600              1.961              3.807
 Vibration     4          0.614              1.915              2.827
 Vibration     5          0.619              1.900              2.640
 Vibration     6          0.635              1.849              2.196
 Vibration     7          0.636              1.846              2.177
 Vibration     8          0.673              1.731              1.604
 Vibration     9          0.699              1.654              1.360
 Vibration    10          0.823              1.326              0.750
 Vibration    11          0.835              1.298              0.714
 Vibration    12          0.903              1.144              0.548

 Optimization completed.
    -- Stationary point found.

 1\1\GINC-N58\Freq\UB2PLYPD3-FC\CC-pVTZ\C5H11O2(2)\ROOT\05-Jun-2019\0\\
 #N Geom=AllCheck Guess=TCheck SCRF=Check GenChk UB2PLYPD3(FC)/CC-pVTZ
 Freq\\Title Card Required\\0,2\C,-0.8743695759,0.1995192081,-0.3215702
 258\H,-1.3053945869,-0.1525727473,-1.2575990188\C,1.3033259492,-2.7058
 253863,-1.2911376542\H,0.5852871373,-2.2444103443,-1.9706428277\H,2.28
 1105913,-2.7621956143,-1.7645680037\H,0.9597214932,-3.6993048842,-1.00
 9662737\O,1.488945613,-1.8986179433,-0.1344350981\O,0.2860252094,-1.86
 90556984,0.572152913\H,-0.3309480289,-0.8766604901,0.1476892426\C,-1.8

 Normal termination of Gaussian 16 at Wed Jun  5 12:30:09 2019.
