 Gaussian 16, Revision B.01,
 Gaussian 16:  ES64L-G16RevB.01 20-Dec-2017

 ----------------------------------------------------------------------
 # opt=(calcfc,ts,noeigentest,maxcyc=500) freq=noraman uB2PLYPD3/cc-pvt
 z
 ----------------------------------------------------------------------

 -------------------
 Title Card Required
 -------------------
 Symbolic Z-matrix:
 Charge =  0 Multiplicity = 2

 SCF Done:  E(UB2PLYPD3) =  -345.567242976     A.U. after   22 cycles
 E2(B2PLYPD3) =    -0.4319797759D+00 E(B2PLYPD3) =    -0.34599922275215D+03
 E2(B2PLYPD3) =    -0.4319797759D+00 E(B2PLYPD3) =    -0.34599922275215D+03
 SCF Done:  E(UB2PLYPD3) =  -345.567250074     A.U. after   15 cycles
 E2(B2PLYPD3) =    -0.4320372589D+00 E(B2PLYPD3) =    -0.34599928733343D+03
 SCF Done:  E(UB2PLYPD3) =  -345.567243367     A.U. after   11 cycles
 E2(B2PLYPD3) =    -0.4320443407D+00 E(B2PLYPD3) =    -0.34599928770755D+03
 SCF Done:  E(UB2PLYPD3) =  -345.567244234     A.U. after    9 cycles
 E2(B2PLYPD3) =    -0.4320434635D+00 E(B2PLYPD3) =    -0.34599928769717D+03
 Optimization completed.
    -- Stationary point found.
 Normal termination of Gaussian 16 at Mon Jun 24 18:40:52 2019.

 ----------------------------------------------------------------------
 #N Geom=AllCheck Guess=TCheck SCRF=Check GenChk UB2PLYPD3(FC)/CC-pVTZ
 Freq
 ----------------------------------------------------------------------

 Structure from the checkpoint file:  "/localscratch/353442/Gau-82657.chk"
 -------------------
 Title Card Required
 -------------------
 Charge =  0 Multiplicity = 2

                         Standard orientation:
 ---------------------------------------------------------------------
 Center     Atomic      Atomic             Coordinates (Angstroms)
 Number     Number       Type             X           Y           Z
 ---------------------------------------------------------------------
      1          6           0        1.199705    0.151009   -0.492406
      2          1           0        0.613630   -0.726683   -0.769086
      3          1           0        1.199719    0.812178   -1.358783
      4          6           0        0.558291    0.843982    0.688331
      5          1           0        0.476770    0.247072    1.590288
      6          1           0        0.877010    1.864087    0.873008
      7          6           0       -2.675333   -0.989192    0.426455
      8          1           0       -3.597669   -0.489791    0.716953
      9          1           0       -2.891928   -1.971813    0.012764
     10          1           0       -2.017942   -1.086515    1.291823
     11          8           0       -2.030774   -0.278021   -0.621823
     12          8           0       -1.804280    1.039794   -0.172324
     13          1           0       -0.747601    1.000436    0.281262
     14          6           0        2.569952   -0.252020   -0.180446
     15          6           0        3.694533   -0.568923    0.116664
     16          1           0        4.685547   -0.852282    0.363352
 ---------------------------------------------------------------------

 SCF Done:  E(UB2PLYPD3) =  -345.567244234     A.U. after    1 cycles
 E2(B2PLYPD3) =    -0.4320434624D+00 E(B2PLYPD3) =    -0.34599928769601D+03
 E2(B2PLYPD3) =    -0.4320434624D+00 E(B2PLYPD3) =    -0.34599928769601D+03

 The electronic state is 2-A.
 Alpha  occ. eigenvalues --  -19.79256 -19.79136 -10.66537 -10.65152 -10.65071
 Alpha  occ. eigenvalues --  -10.62718 -10.61280  -1.27985  -1.02835  -0.93663
 Alpha  occ. eigenvalues --   -0.85220  -0.78429  -0.75364  -0.62450  -0.61215
 Alpha  occ. eigenvalues --   -0.56673  -0.55517  -0.55048  -0.54076  -0.50132
 Alpha  occ. eigenvalues --   -0.48767  -0.45625  -0.44582  -0.38345  -0.37356
 Alpha  occ. eigenvalues --   -0.33564  -0.32630  -0.30540
 Alpha virt. eigenvalues --    0.07100   0.09058   0.10173   0.10304   0.11153
 Alpha virt. eigenvalues --    0.11317   0.12223   0.13927   0.15080   0.17170
 Alpha virt. eigenvalues --    0.18460   0.20004   0.23085   0.24652   0.25846

  Beta  occ. eigenvalues --  -19.79124 -19.77571 -10.66545 -10.65126 -10.63841
  Beta  occ. eigenvalues --  -10.62635 -10.61222  -1.26163  -1.00035  -0.92576
  Beta  occ. eigenvalues --   -0.84155  -0.77978  -0.72989  -0.61626  -0.58454
  Beta  occ. eigenvalues --   -0.55822  -0.54971  -0.54579  -0.53184  -0.48247
  Beta  occ. eigenvalues --   -0.46652  -0.45109  -0.43809  -0.36200  -0.34823
  Beta  occ. eigenvalues --   -0.32617  -0.32370
  Beta virt. eigenvalues --   -0.05403   0.07297   0.09254   0.10360   0.10549
  Beta virt. eigenvalues --    0.11274   0.11586   0.12676   0.14367   0.15132
  Beta virt. eigenvalues --    0.17265   0.18699   0.20741   0.23794   0.25023

 Mulliken charges and spin densities:
               1          2
     1  C   -0.150515  -0.028595
     2  H    0.130672   0.006541
     3  H    0.126871   0.001254
     4  C   -0.285225   0.664341
     5  H    0.124996  -0.013193
     6  H    0.132386  -0.011851
     7  C   -0.054620  -0.003203
     8  H    0.095689   0.002283
     9  H    0.097681  -0.000838
    10  H    0.068839   0.000536
    11  O   -0.192436   0.023166
    12  O   -0.221821   0.400338
    13  H    0.210743  -0.074241
    14  C   -0.037981   0.007044
    15  C   -0.214314   0.027142
    16  H    0.169035  -0.000723
 Sum of Mulliken charges =  -0.00000   1.00000

 Dipole moment (field-independent basis, Debye):
    X=              0.4453    Y=             -0.9920    Z=              1.6196  Tot=              1.9507
 Quadrupole moment (field-independent basis, Debye-Ang):
   XX=            -40.9482   YY=            -42.6595   ZZ=            -44.0711
   XY=              4.0282   XZ=             -1.8769   YZ=             -0.3580

  Exact polarizability: 123.200   0.748  61.973   8.745   0.985  55.776
 Approx polarizability: 107.566  -4.873  72.378  12.110   0.426  66.568

 ******    1 imaginary frequencies (negative Signs) ******

                      1                      2                      3
                      A                      A                      A
 Frequencies --  -1870.3657                32.2250                43.4468
 Red. masses --      1.1117                 3.4240                 2.5080
 Frc consts  --      2.2914                 0.0021                 0.0028
 IR Inten    --   1938.6083                 1.0634                 1.2387

                      4                      5                      6
                      A                      A                      A
 Frequencies --     85.1713               101.6290               155.6685
 Red. masses --      3.4835                 3.1577                 2.9006
 Frc consts  --      0.0149                 0.0192                 0.0414
 IR Inten    --      4.1755                 2.2574                 0.0821

                      7                      8                      9
                      A                      A                      A
 Frequencies --    199.3959               284.7656               336.5406
 Red. masses --      1.5325                 2.3996                 3.0837
 Frc consts  --      0.0359                 0.1146                 0.2058
 IR Inten    --      1.5067                 3.5477                 5.4884

                     10                     11                     12
                      A                      A                      A
 Frequencies --    447.0423               479.8324               532.6862
 Red. masses --      2.7948                 5.4477                 1.4442
 Frc consts  --      0.3291                 0.7390                 0.2414
 IR Inten    --      7.1638                 8.0833                 4.2933

                     13                     14                     15
                      A                      A                      A
 Frequencies --    598.0088               652.4419               658.8104
 Red. masses --      2.4936                 1.2384                 1.2472
 Frc consts  --      0.5254                 0.3106                 0.3189
 IR Inten    --      2.7447                44.7911                44.3780

                     16                     17                     18
                      A                      A                      A
 Frequencies --    801.5985               899.0902               914.7540
 Red. masses --      1.1570                 3.3448                 4.5620
 Frc consts  --      0.4380                 1.5930                 2.2491
 IR Inten    --      0.7632                 8.4226                 6.9093

                     19                     20                     21
                      A                      A                      A
 Frequencies --   1025.5053              1050.4440              1051.9251
 Red. masses --      1.4710                 4.9732                 3.2911
 Frc consts  --      0.9115                 3.2332                 2.1457
 IR Inten    --      5.2270                32.1197                26.7165

                     22                     23                     24
                      A                      A                      A
 Frequencies --   1109.1163              1147.9671              1177.9083
 Red. masses --      1.4363                 1.2776                 1.2716
 Frc consts  --      1.0410                 0.9920                 1.0395
 IR Inten    --      0.3714                 4.4733                 2.0400

                     25                     26                     27
                      A                      A                      A
 Frequencies --   1216.2199              1299.2147              1339.2021
 Red. masses --      1.5704                 1.1345                 1.4067
 Frc consts  --      1.3687                 1.1282                 1.4864
 IR Inten    --      5.0906                 0.7278                 4.2548

                     28                     29                     30
                      A                      A                      A
 Frequencies --   1456.3992              1460.8558              1473.2446
 Red. masses --      1.0955                 1.0977                 1.1336
 Frc consts  --      1.3690                 1.3802                 1.4496
 IR Inten    --      8.2765                 8.8180                 1.1794

                     31                     32                     33
                      A                      A                      A
 Frequencies --   1482.1355              1488.8867              1518.5624
 Red. masses --      1.0527                 1.0840                 1.0521
 Frc consts  --      1.3624                 1.4159                 1.4294
 IR Inten    --      7.1357                 8.0179                11.2222

                     34                     35                     36
                      A                      A                      A
 Frequencies --   2180.5213              3037.7800              3061.1937
 Red. masses --      6.1193                 1.0310                 1.0588
 Frc consts  --     17.1423                 5.6058                 5.8459
 IR Inten    --      2.5721                36.5621                 2.4938

                     37                     38                     39
                      A                      A                      A
 Frequencies --   3100.0297              3113.5075              3116.4317
 Red. masses --      1.1015                 1.0553                 1.0998
 Frc consts  --      6.2370                 6.0275                 6.2934
 IR Inten    --      2.5477                14.1272                37.4003

                     40                     41                     42
                      A                      A                      A
 Frequencies --   3148.1875              3202.4354              3490.0770
 Red. masses --      1.1052                 1.1132                 1.1549
 Frc consts  --      6.4537                 6.7261                 8.2886
 IR Inten    --     13.9294                 7.6859                69.6629

 - Thermochemistry -
 -------------------
 Temperature   298.150 Kelvin.  Pressure   1.00000 Atm.
 Atom     1 has atomic number  6 and mass  12.00000

 Molecular mass:   101.06025 amu.
 Principal axes and moments of inertia in atomic units:
                           1         2         3
     Eigenvalues --   291.109451947.161762052.24403
           X            0.99984   0.01528  -0.00895
           Y           -0.01541   0.99978  -0.01453
           Z            0.00873   0.01466   0.99985
 This molecule is an asymmetric top.
 Rotational symmetry number  1.
 Rotational temperatures (Kelvin)      0.29753     0.04448     0.04220
 Rotational constants (GHZ):           6.19953     0.92686     0.87940
    1 imaginary frequencies ignored.
 Zero-point vibrational energy     322817.4 (Joules/Mol)
                                   77.15521 (Kcal/Mol)
 Warning -- explicit consideration of  12 degrees of freedom as
           vibrations may cause significant error
 Vibrational temperatures:     46.36    62.51   122.54   146.22   223.97
          (Kelvin)            286.89   409.71   484.21   643.19   690.37
                              766.42   860.40   938.72   947.88  1153.32
                             1293.59  1316.13  1475.47  1511.35  1513.49
                             1595.77  1651.67  1694.75  1749.87  1869.28
                             1926.81  2095.43  2101.85  2119.67  2132.46
                             2142.18  2184.87  3137.28  4370.69  4404.37
                             4460.25  4479.64  4483.85  4529.54  4607.59
                             5021.44

 Zero-point correction=                           0.122955 (Hartree/Particle)
 Thermal correction to Energy=                    0.132555
 Thermal correction to Enthalpy=                  0.133499
 Thermal correction to Gibbs Free Energy=         0.086256
 Sum of electronic and zero-point Energies=           -345.876333
 Sum of electronic and thermal Energies=              -345.866733
 Sum of electronic and thermal Enthalpies=            -345.865788
 Sum of electronic and thermal Free Energies=         -345.913032

                     E (Thermal)             CV                S
                      KCal/Mol        Cal/Mol-Kelvin    Cal/Mol-Kelvin
 Total                   83.180             31.907             99.432
 Electronic               0.000              0.000              1.377
 Translational            0.889              2.981             39.749
 Rotational               0.889              2.981             28.544
 Vibrational             81.402             25.946             29.762
 Vibration     1          0.594              1.983              5.688
 Vibration     2          0.595              1.980              5.095
 Vibration     3          0.601              1.959              3.768
 Vibration     4          0.604              1.948              3.423
 Vibration     5          0.620              1.896              2.602
 Vibration     6          0.638              1.841              2.139
 Vibration     7          0.683              1.702              1.505
 Vibration     8          0.717              1.603              1.229
 Vibration     9          0.806              1.367              0.805
 Vibration    10          0.836              1.295              0.711
 Vibration    11          0.888              1.178              0.581
 Vibration    12          0.956              1.036              0.453

 Optimization completed.
    -- Stationary point found.

 1\1\GINC-N142\Freq\UB2PLYPD3-FC\CC-pVTZ\C5H9O2(2)\ROOT\24-Jun-2019\0\\
 #N Geom=AllCheck Guess=TCheck SCRF=Check GenChk UB2PLYPD3(FC)/CC-pVTZ
 Freq\\Title Card Required\\0,2\C,-1.24662436,0.1666277652,0.6363656458
 \H,-0.6570569363,-0.6614372366,1.0327201781\H,-1.2324307882,0.95043912
 86,1.3934595648\C,-0.6232291096,0.6722799348,-0.6448285856\H,-0.556427
 5756,-0.0536117237,-1.4480051291\H,-0.9438999856,1.6540947808,-0.97575
 14375\C,2.6124735897,-1.1112331542,-0.1603275116\H,3.5305749816,-0.664
 1331215,-0.536737974\H,2.8346660076,-2.0212557741,0.3929243631\H,1.941

 Normal termination of Gaussian 16 at Mon Jun 24 20:02:31 2019.
