 Gaussian 16, Revision B.01,
 Gaussian 16:  ES64L-G16RevB.01 20-Dec-2017

 ----------------------------------------------------------------------
 # opt=(calcfc,ts,noeigentest,maxcyc=500) freq=noraman uB2PLYPD3/cc-pvt
 z
 ----------------------------------------------------------------------

 -------------------
 Title Card Required
 -------------------
 Symbolic Z-matrix:
 Charge =  0 Multiplicity = 2

 SCF Done:  E(UB2PLYPD3) =  -346.784401535     A.U. after   24 cycles
 E2(B2PLYPD3) =    -0.4400565455D+00 E(B2PLYPD3) =    -0.34722445808039D+03
 E2(B2PLYPD3) =    -0.4400565455D+00 E(B2PLYPD3) =    -0.34722445808039D+03
 SCF Done:  E(UB2PLYPD3) =  -346.792943305     A.U. after   21 cycles
 E2(B2PLYPD3) =    -0.4386572083D+00 E(B2PLYPD3) =    -0.34723160051316D+03
 SCF Done:  E(UB2PLYPD3) =  -346.804426558     A.U. after   19 cycles
 E2(B2PLYPD3) =    -0.4365499099D+00 E(B2PLYPD3) =    -0.34724097646779D+03
 SCF Done:  E(UB2PLYPD3) =  -346.802164916     A.U. after   22 cycles
 E2(B2PLYPD3) =    -0.4383061149D+00 E(B2PLYPD3) =    -0.34724047103073D+03
 SCF Done:  E(UB2PLYPD3) =  -346.803848816     A.U. after   22 cycles
 E2(B2PLYPD3) =    -0.4394951105D+00 E(B2PLYPD3) =    -0.34724334392625D+03
 SCF Done:  E(UB2PLYPD3) =  -346.803899748     A.U. after   20 cycles
 E2(B2PLYPD3) =    -0.4386869370D+00 E(B2PLYPD3) =    -0.34724258668507D+03
 SCF Done:  E(UB2PLYPD3) =  -346.804052524     A.U. after   18 cycles
 E2(B2PLYPD3) =    -0.4389324892D+00 E(B2PLYPD3) =    -0.34724298501272D+03
 SCF Done:  E(UB2PLYPD3) =  -346.804181525     A.U. after   16 cycles
 E2(B2PLYPD3) =    -0.4389474538D+00 E(B2PLYPD3) =    -0.34724312897857D+03
 SCF Done:  E(UB2PLYPD3) =  -346.804184348     A.U. after   16 cycles
 E2(B2PLYPD3) =    -0.4389767048D+00 E(B2PLYPD3) =    -0.34724316105286D+03
 SCF Done:  E(UB2PLYPD3) =  -346.804238705     A.U. after   15 cycles
 E2(B2PLYPD3) =    -0.4389307844D+00 E(B2PLYPD3) =    -0.34724316948965D+03
 E2(B2PLYPD3) =    -0.4393206402D+00 E(B2PLYPD3) =    -0.34724320025776D+03
 E2(B2PLYPD3) =    -0.4389684353D+00 E(B2PLYPD3) =    -0.34724326007303D+03
 SCF Done:  E(UB2PLYPD3) =  -346.804188149     A.U. after   17 cycles
 E2(B2PLYPD3) =    -0.4390686513D+00 E(B2PLYPD3) =    -0.34724325679989D+03
 SCF Done:  E(UB2PLYPD3) =  -346.804285489     A.U. after   15 cycles
 E2(B2PLYPD3) =    -0.4389793138D+00 E(B2PLYPD3) =    -0.34724326480293D+03
 SCF Done:  E(UB2PLYPD3) =  -346.804298260     A.U. after   10 cycles
 E2(B2PLYPD3) =    -0.4389680710D+00 E(B2PLYPD3) =    -0.34724326633141D+03
 SCF Done:  E(UB2PLYPD3) =  -346.804253282     A.U. after   13 cycles
 E2(B2PLYPD3) =    -0.4390148707D+00 E(B2PLYPD3) =    -0.34724326815315D+03
 SCF Done:  E(UB2PLYPD3) =  -346.804285475     A.U. after   13 cycles
 E2(B2PLYPD3) =    -0.4389845723D+00 E(B2PLYPD3) =    -0.34724327004738D+03
 SCF Done:  E(UB2PLYPD3) =  -346.804263407     A.U. after   10 cycles
 E2(B2PLYPD3) =    -0.4390070048D+00 E(B2PLYPD3) =    -0.34724327041179D+03
 SCF Done:  E(UB2PLYPD3) =  -346.804318510     A.U. after   13 cycles
 E2(B2PLYPD3) =    -0.4389501989D+00 E(B2PLYPD3) =    -0.34724326870869D+03
 SCF Done:  E(UB2PLYPD3) =  -346.804271127     A.U. after   13 cycles
 E2(B2PLYPD3) =    -0.4389992770D+00 E(B2PLYPD3) =    -0.34724327040347D+03
 SCF Done:  E(UB2PLYPD3) =  -346.804270928     A.U. after    7 cycles
 E2(B2PLYPD3) =    -0.4389994822D+00 E(B2PLYPD3) =    -0.34724327041029D+03
 Optimization completed.
    -- Stationary point found.
 Normal termination of Gaussian 16 at Wed Jun  5 02:42:17 2019.

 ----------------------------------------------------------------------
 #N Geom=AllCheck Guess=TCheck SCRF=Check GenChk UB2PLYPD3(FC)/CC-pVTZ
 Freq
 ----------------------------------------------------------------------

 Structure from the checkpoint file:  "/localscratch/339753/Gau-42322.chk"
 -------------------
 Title Card Required
 -------------------
 Charge =  0 Multiplicity = 2

                         Standard orientation:
 ---------------------------------------------------------------------
 Center     Atomic      Atomic             Coordinates (Angstroms)
 Number     Number       Type             X           Y           Z
 ---------------------------------------------------------------------
      1          6           0       -1.277108    0.185172   -0.362038
      2          1           0       -0.776892    1.109281   -0.658209
      3          1           0       -1.404848   -0.417886   -1.261035
      4          6           0       -0.428021   -0.551788    0.643298
      5          1           0       -0.104910    0.018895    1.509935
      6          1           0       -0.767616   -1.550791    0.898188
      7          6           0        2.860457    1.028588   -0.141497
      8          1           0        1.930477    1.586762   -0.017878
      9          1           0        3.643777    1.479514    0.464270
     10          1           0        3.150819    1.023783   -1.190718
     11          8           0        2.725438   -0.296773    0.348428
     12          8           0        1.797033   -0.965967   -0.473401
     13          1           0        0.775882   -0.801919    0.050189
     14          6           0       -2.626814    0.505519    0.220672
     15          6           0       -3.774223   -0.013094   -0.206371
     16          1           0       -2.632605    1.190761    1.061106
     17          1           0       -4.715764    0.241565    0.257562
     18          1           0       -3.803831   -0.704431   -1.038014
 ---------------------------------------------------------------------

 SCF Done:  E(UB2PLYPD3) =  -346.804270928     A.U. after    1 cycles
 E2(B2PLYPD3) =    -0.4389994903D+00 E(B2PLYPD3) =    -0.34724327041842D+03
 E2(B2PLYPD3) =    -0.4389994903D+00 E(B2PLYPD3) =    -0.34724327041842D+03

 The electronic state is 2-A.
 Alpha  occ. eigenvalues --  -19.78529 -19.78450 -10.66099 -10.64164 -10.63038
 Alpha  occ. eigenvalues --  -10.62991 -10.61541  -1.27323  -1.02109  -0.93718
 Alpha  occ. eigenvalues --   -0.85685  -0.77760  -0.74047  -0.65249  -0.60855
 Alpha  occ. eigenvalues --   -0.56542  -0.55586  -0.54430  -0.52430  -0.50821
 Alpha  occ. eigenvalues --   -0.49003  -0.46929  -0.44203  -0.43318  -0.42228
 Alpha  occ. eigenvalues --   -0.36909  -0.36620  -0.32378  -0.29624
 Alpha virt. eigenvalues --    0.06137   0.07383   0.09879   0.10380   0.11234
 Alpha virt. eigenvalues --    0.12345   0.12882   0.15396   0.15585   0.15798
 Alpha virt. eigenvalues --    0.17076   0.19104   0.21532   0.22864   0.23934

  Beta  occ. eigenvalues --  -19.78398 -19.76855 -10.66108 -10.63079 -10.62943
  Beta  occ. eigenvalues --  -10.62892 -10.61464  -1.25481  -0.99249  -0.92956
  Beta  occ. eigenvalues --   -0.84133  -0.77355  -0.71866  -0.65047  -0.57561
  Beta  occ. eigenvalues --   -0.56175  -0.54480  -0.54131  -0.51838  -0.49698
  Beta  occ. eigenvalues --   -0.46715  -0.45873  -0.43257  -0.42723  -0.41739
  Beta  occ. eigenvalues --   -0.35417  -0.33689  -0.31341
  Beta virt. eigenvalues --   -0.04923   0.06613   0.07490   0.09981   0.10485
  Beta virt. eigenvalues --    0.11578   0.12489   0.13427   0.15496   0.15686
  Beta virt. eigenvalues --    0.16001   0.17330   0.19262   0.22191   0.23348

 Mulliken charges and spin densities:
               1          2
     1  C   -0.150792  -0.032907
     2  H    0.109059   0.004147
     3  H    0.106747   0.004863
     4  C   -0.290698   0.653894
     5  H    0.122198  -0.013695
     6  H    0.128193  -0.013276
     7  C   -0.052884  -0.003839
     8  H    0.061633   0.001420
     9  H    0.099158  -0.000974
    10  H    0.084194   0.002129
    11  O   -0.187763   0.023699
    12  O   -0.222927   0.408616
    13  H    0.217157  -0.074880
    14  C   -0.101704  -0.006282
    15  C   -0.308877   0.047406
    16  H    0.133624   0.001660
    17  H    0.129151  -0.000413
    18  H    0.124532  -0.001568
 Sum of Mulliken charges =  -0.00000   1.00000

 Dipole moment (field-independent basis, Debye):
    X=             -1.5500    Y=              2.0223    Z=              0.2883  Tot=              2.5642
 Quadrupole moment (field-independent basis, Debye-Ang):
   XX=            -45.7899   YY=            -44.7409   ZZ=            -44.8943
   XY=              6.9491   XZ=             -0.6397   YZ=              0.9545

  Exact polarizability: 137.183   7.860  63.349  -2.959   3.745  61.831
 Approx polarizability: 109.940   6.614  74.057   1.595   6.720  73.647

 ******    1 imaginary frequencies (negative Signs) ******

                      1                      2                      3
                      A                      A                      A
 Frequencies --  -1909.0663                21.1822                42.8254
 Red. masses --      1.1090                 2.7729                 2.8505
 Frc consts  --      2.3814                 0.0007                 0.0031
 IR Inten    --   2401.2969                 1.1411                 0.5466

                      4                      5                      6
                      A                      A                      A
 Frequencies --     68.5068                89.8171               131.3622
 Red. masses --      2.6667                 3.2474                 2.6919
 Frc consts  --      0.0074                 0.0154                 0.0274
 IR Inten    --      1.9753                 1.2450                 1.4756

                      7                      8                      9
                      A                      A                      A
 Frequencies --    159.7371               242.4541               299.4332
 Red. masses --      2.0412                 1.5415                 2.1846
 Frc consts  --      0.0307                 0.0534                 0.1154
 IR Inten    --      1.2980                 2.4632                 1.0491

                     10                     11                     12
                      A                      A                      A
 Frequencies --    424.4315               455.5871               524.5486
 Red. masses --      2.0467                 2.6233                 1.5947
 Frc consts  --      0.2172                 0.3208                 0.2585
 IR Inten    --      2.5126                 4.7835                 1.9254

                     13                     14                     15
                      A                      A                      A
 Frequencies --    608.4141               665.4099               805.9533
 Red. masses --      2.0481                 1.5735                 1.1482
 Frc consts  --      0.4467                 0.4105                 0.4394
 IR Inten    --      1.0259                16.3691                 2.3386

                     16                     17                     18
                      A                      A                      A
 Frequencies --    897.2390               914.8106               954.7451
 Red. masses --      1.9030                 5.0911                 1.3404
 Frc consts  --      0.9026                 2.5103                 0.7199
 IR Inten    --      5.2854                16.8848                42.8310

                     19                     20                     21
                      A                      A                      A
 Frequencies --    988.0191              1019.8315              1042.4981
 Red. masses --      1.2076                 1.3366                 1.2963
 Frc consts  --      0.6946                 0.8191                 0.8301
 IR Inten    --      9.5396                 4.5596                19.1536

                     22                     23                     24
                      A                      A                      A
 Frequencies --   1055.6969              1058.8684              1166.7011
 Red. masses --      6.0239                 2.6544                 1.2355
 Frc consts  --      3.9555                 1.7535                 0.9908
 IR Inten    --     37.3141                 5.5689                12.5297

                     25                     26                     27
                      A                      A                      A
 Frequencies --   1177.8936              1197.7353              1216.5926
 Red. masses --      1.2689                 1.8862                 1.5792
 Frc consts  --      1.0373                 1.5942                 1.3771
 IR Inten    --      3.6887                 2.9015                 2.7402

                     28                     29                     30
                      A                      A                      A
 Frequencies --   1300.1565              1322.6322              1335.1968
 Red. masses --      1.1554                 1.3322                 1.2873
 Frc consts  --      1.1507                 1.3731                 1.3522
 IR Inten    --      0.6179                 1.1218                 0.7575

                     31                     32                     33
                      A                      A                      A
 Frequencies --   1452.0166              1459.7460              1462.4539
 Red. masses --      1.0710                 1.1325                 1.1833
 Frc consts  --      1.3303                 1.4218                 1.4911
 IR Inten    --      3.7972                 8.6731                 1.0006

                     34                     35                     36
                      A                      A                      A
 Frequencies --   1475.8890              1481.9597              1496.0247
 Red. masses --      1.1396                 1.0516                 1.1006
 Frc consts  --      1.4626                 1.3607                 1.4513
 IR Inten    --      2.1541                 8.4058                 5.6393

                     37                     38                     39
                      A                      A                      A
 Frequencies --   1518.0904              1697.5065              3033.0643
 Red. masses --      1.0518                 4.2798                 1.0322
 Frc consts  --      1.4282                 7.2660                 5.5948
 IR Inten    --     14.1753                 8.8289                32.7312

                     40                     41                     42
                      A                      A                      A
 Frequencies --   3048.2309              3095.0488              3098.5616
 Red. masses --      1.0599                 1.0920                 1.0614
 Frc consts  --      5.8025                 6.1630                 6.0039
 IR Inten    --     15.4228                 7.2666                14.7189

                     43                     44                     45
                      A                      A                      A
 Frequencies --   3110.1394              3145.1309              3152.2517
 Red. masses --      1.1019                 1.1048                 1.0635
 Frc consts  --      6.2801                 6.4387                 6.2265
 IR Inten    --     45.4810                15.5582                13.9686

                     46                     47                     48
                      A                      A                      A
 Frequencies --   3161.6177              3185.0333              3244.2764
 Red. masses --      1.0860                 1.1116                 1.1160
 Frc consts  --      6.3956                 6.6439                 6.9206
 IR Inten    --      7.9246                11.4733                12.8840

 - Thermochemistry -
 -------------------
 Temperature   298.150 Kelvin.  Pressure   1.00000 Atm.
 Atom     1 has atomic number  6 and mass  12.00000

 Molecular mass:   103.07590 amu.
 Principal axes and moments of inertia in atomic units:
                           1         2         3
     Eigenvalues --   252.295672291.008832382.70531
           X            0.99984   0.01776  -0.00121
           Y           -0.01777   0.99983  -0.00459
           Z            0.00113   0.00461   0.99999
 This molecule is an asymmetric top.
 Rotational symmetry number  1.
 Rotational temperatures (Kelvin)      0.34330     0.03781     0.03635
 Rotational constants (GHZ):           7.15328     0.78775     0.75743
    1 imaginary frequencies ignored.
 Zero-point vibrational energy     385827.5 (Joules/Mol)
                                   92.21499 (Kcal/Mol)
 Warning -- explicit consideration of  12 degrees of freedom as
           vibrations may cause significant error
 Vibrational temperatures:     30.48    61.62    98.57   129.23   189.00
          (Kelvin)            229.83   348.84   430.82   610.66   655.49
                              754.71   875.37   957.38  1159.59  1290.93
                             1316.21  1373.67  1421.54  1467.31  1499.92
                             1518.91  1523.48  1678.62  1694.73  1723.27
                             1750.41  1870.64  1902.97  1921.05  2089.13
                             2100.25  2104.15  2123.48  2132.21  2152.45
                             2184.19  2442.33  4363.90  4385.72  4453.08
                             4458.14  4474.80  4525.14  4535.39  4548.86
                             4582.55  4667.79

 Zero-point correction=                           0.146954 (Hartree/Particle)
 Thermal correction to Energy=                    0.156870
 Thermal correction to Enthalpy=                  0.157814
 Thermal correction to Gibbs Free Energy=         0.109128
 Sum of electronic and zero-point Energies=           -347.096316
 Sum of electronic and thermal Energies=              -347.086400
 Sum of electronic and thermal Enthalpies=            -347.085456
 Sum of electronic and thermal Free Energies=         -347.134143

                     E (Thermal)             CV                S
                      KCal/Mol        Cal/Mol-Kelvin    Cal/Mol-Kelvin
 Total                   98.437             32.630            102.470
 Electronic               0.000              0.000              1.377
 Translational            0.889              2.981             39.808
 Rotational               0.889              2.981             28.712
 Vibrational             96.660             26.669             32.572
 Vibration     1          0.593              1.985              6.520
 Vibration     2          0.595              1.980              5.124
 Vibration     3          0.598              1.969              4.196
 Vibration     4          0.602              1.956              3.664
 Vibration     5          0.612              1.922              2.926
 Vibration     6          0.622              1.892              2.553
 Vibration     7          0.659              1.775              1.785
 Vibration     8          0.692              1.675              1.420
 Vibration     9          0.786              1.417              0.877
 Vibration    10          0.814              1.349              0.779
 Vibration    11          0.880              1.196              0.600
 Vibration    12          0.967              1.014              0.435

 Optimization completed.
    -- Stationary point found.

 1\1\GINC-N58\Freq\UB2PLYPD3-FC\CC-pVTZ\C5H11O2(2)\ROOT\05-Jun-2019\0\\
 #N Geom=AllCheck Guess=TCheck SCRF=Check GenChk UB2PLYPD3(FC)/CC-pVTZ
 Freq\\Title Card Required\\0,2\C,-1.9764199701,0.433513752,-0.22660929
 3\H,-2.2523441081,-0.4199625667,-0.8489874475\H,-2.2956839031,0.210215
 4438,0.7914281742\C,-0.4820925767,0.6327165355,-0.2720497439\H,-0.0363
 357045,0.7030342734,-1.2607336316\H,-0.0878151978,1.368136484,0.422215
 9784\C,0.5026069971,-2.7951820032,-1.3708927401\H,-0.3082798491,-2.220
 3193945,-1.8222220078\H,1.1601678986,-3.1775638445,-2.1488869764\H,0.0

 Normal termination of Gaussian 16 at Wed Jun  5 04:32:18 2019.
