 Gaussian 16, Revision B.01,
 Gaussian 16:  ES64L-G16RevB.01 20-Dec-2017

 ----------------------------------------------------------------------
 # opt=(calcfc,ts,noeigentest,maxcyc=500) freq=noraman uB2PLYPD3/cc-pvt
 z
 ----------------------------------------------------------------------

 -------------------
 Title Card Required
 -------------------
 Symbolic Z-matrix:
 Charge =  0 Multiplicity = 2

 SCF Done:  E(UB2PLYPD3) =  -345.549959113     A.U. after   21 cycles
 E2(B2PLYPD3) =    -0.4321910841D+00 E(B2PLYPD3) =    -0.34598215019691D+03
 E2(B2PLYPD3) =    -0.4321910841D+00 E(B2PLYPD3) =    -0.34598215019691D+03
 SCF Done:  E(UB2PLYPD3) =  -345.558461599     A.U. after   19 cycles
 E2(B2PLYPD3) =    -0.4313434080D+00 E(B2PLYPD3) =    -0.34598980500698D+03
 SCF Done:  E(UB2PLYPD3) =  -345.568617450     A.U. after   19 cycles
 E2(B2PLYPD3) =    -0.4293223635D+00 E(B2PLYPD3) =    -0.34599793981304D+03
 SCF Done:  E(UB2PLYPD3) =  -345.566967802     A.U. after   21 cycles
 E2(B2PLYPD3) =    -0.4307982491D+00 E(B2PLYPD3) =    -0.34599776605137D+03
 SCF Done:  E(UB2PLYPD3) =  -345.565716413     A.U. after   19 cycles
 E2(B2PLYPD3) =    -0.4322158682D+00 E(B2PLYPD3) =    -0.34599793228115D+03
 SCF Done:  E(UB2PLYPD3) =  -345.566740551     A.U. after   18 cycles
 E2(B2PLYPD3) =    -0.4311954533D+00 E(B2PLYPD3) =    -0.34599793600473D+03
 SCF Done:  E(UB2PLYPD3) =  -345.565732217     A.U. after   18 cycles
 E2(B2PLYPD3) =    -0.4320094337D+00 E(B2PLYPD3) =    -0.34599774165018D+03
 SCF Done:  E(UB2PLYPD3) =  -345.566363344     A.U. after   17 cycles
 E2(B2PLYPD3) =    -0.4316286742D+00 E(B2PLYPD3) =    -0.34599799201769D+03
 SCF Done:  E(UB2PLYPD3) =  -345.566373072     A.U. after   16 cycles
 E2(B2PLYPD3) =    -0.4316037127D+00 E(B2PLYPD3) =    -0.34599797678452D+03
 SCF Done:  E(UB2PLYPD3) =  -345.566416081     A.U. after   15 cycles
 E2(B2PLYPD3) =    -0.4315992419D+00 E(B2PLYPD3) =    -0.34599801532312D+03
 SCF Done:  E(UB2PLYPD3) =  -345.565878469     A.U. after   18 cycles
 E2(B2PLYPD3) =    -0.4316935328D+00 E(B2PLYPD3) =    -0.34599757200173D+03
 SCF Done:  E(UB2PLYPD3) =  -345.564199694     A.U. after   20 cycles
 E2(B2PLYPD3) =    -0.4319583254D+00 E(B2PLYPD3) =    -0.34599615801975D+03
 SCF Done:  E(UB2PLYPD3) =  -345.566026882     A.U. after   21 cycles
 E2(B2PLYPD3) =    -0.4317586222D+00 E(B2PLYPD3) =    -0.34599778550424D+03
 SCF Done:  E(UB2PLYPD3) =  -345.566851010     A.U. after   21 cycles
 E2(B2PLYPD3) =    -0.4309440935D+00 E(B2PLYPD3) =    -0.34599779510363D+03
 SCF Done:  E(UB2PLYPD3) =  -345.566455630     A.U. after   18 cycles
 E2(B2PLYPD3) =    -0.4315591160D+00 E(B2PLYPD3) =    -0.34599801474575D+03
 SCF Done:  E(UB2PLYPD3) =  -345.566392778     A.U. after   15 cycles
 E2(B2PLYPD3) =    -0.4316293431D+00 E(B2PLYPD3) =    -0.34599802212135D+03
 SCF Done:  E(UB2PLYPD3) =  -345.566398215     A.U. after   10 cycles
 E2(B2PLYPD3) =    -0.4316247519D+00 E(B2PLYPD3) =    -0.34599802296695D+03
 SCF Done:  E(UB2PLYPD3) =  -345.566393777     A.U. after   10 cycles
 E2(B2PLYPD3) =    -0.4316292540D+00 E(B2PLYPD3) =    -0.34599802303113D+03
 SCF Done:  E(UB2PLYPD3) =  -345.566393086     A.U. after    7 cycles
 E2(B2PLYPD3) =    -0.4316299310D+00 E(B2PLYPD3) =    -0.34599802301735D+03
 Optimization completed.
    -- Stationary point found.
 Normal termination of Gaussian 16 at Tue Jun  4 07:17:08 2019.

 ----------------------------------------------------------------------
 #N Geom=AllCheck Guess=TCheck SCRF=Check GenChk UB2PLYPD3(FC)/CC-pVTZ
 Freq
 ----------------------------------------------------------------------

 Structure from the checkpoint file:  "/localscratch/339753/Gau-4208.chk"
 -------------------
 Title Card Required
 -------------------
 Charge =  0 Multiplicity = 2

                         Standard orientation:
 ---------------------------------------------------------------------
 Center     Atomic      Atomic             Coordinates (Angstroms)
 Number     Number       Type             X           Y           Z
 ---------------------------------------------------------------------
      1          6           0       -1.373410    0.009952    0.584345
      2          1           0       -0.924218   -0.939131    0.878582
      3          1           0       -1.378183    0.645100    1.470950
      4          6           0       -0.561579    0.655965   -0.515791
      5          1           0       -0.355454    0.031625   -1.379018
      6          1           0       -0.848177    1.669169   -0.775011
      7          6           0        2.684446   -1.121310    0.010945
      8          1           0        1.720598   -1.627008   -0.073022
      9          1           0        3.405587   -1.592301   -0.653677
     10          1           0        3.036159   -1.164043    1.040250
     11          8           0        2.592028    0.223990   -0.433098
     12          8           0        1.751650    0.915775    0.462515
     13          1           0        0.707162    0.832439   -0.005943
     14          6           0       -2.749968   -0.220596    0.147597
     15          6           0       -3.873981   -0.394474   -0.251739
     16          1           0       -4.865947   -0.551196   -0.590592
 ---------------------------------------------------------------------

 SCF Done:  E(UB2PLYPD3) =  -345.566393086     A.U. after    1 cycles
 E2(B2PLYPD3) =    -0.4316299341D+00 E(B2PLYPD3) =    -0.34599802302044D+03
 E2(B2PLYPD3) =    -0.4316299341D+00 E(B2PLYPD3) =    -0.34599802302044D+03

 The electronic state is 2-A.
 Alpha  occ. eigenvalues --  -19.79018 -19.78975 -10.66453 -10.65716 -10.65218
 Alpha  occ. eigenvalues --  -10.63041 -10.61653  -1.27828  -1.02715  -0.94016
 Alpha  occ. eigenvalues --   -0.85493  -0.78291  -0.75759  -0.62327  -0.61389
 Alpha  occ. eigenvalues --   -0.56671  -0.55431  -0.55170  -0.54632  -0.50311
 Alpha  occ. eigenvalues --   -0.48869  -0.45938  -0.44446  -0.38045  -0.37180
 Alpha  occ. eigenvalues --   -0.33827  -0.33028  -0.30627
 Alpha virt. eigenvalues --    0.06579   0.08609   0.10045   0.10341   0.11003
 Alpha virt. eigenvalues --    0.11217   0.12452   0.13499   0.15267   0.16576
 Alpha virt. eigenvalues --    0.18153   0.20176   0.23040   0.23665   0.25893

  Beta  occ. eigenvalues --  -19.78850 -19.77462 -10.66461 -10.65768 -10.63905
  Beta  occ. eigenvalues --  -10.62964 -10.61589  -1.26010  -0.99933  -0.92968
  Beta  occ. eigenvalues --   -0.84451  -0.77834  -0.73325  -0.61916  -0.58291
  Beta  occ. eigenvalues --   -0.55908  -0.54670  -0.54550  -0.53948  -0.48723
  Beta  occ. eigenvalues --   -0.46546  -0.45460  -0.43612  -0.36019  -0.34576
  Beta  occ. eigenvalues --   -0.32960  -0.32727
  Beta virt. eigenvalues --   -0.05476   0.06740   0.08762   0.10342   0.10542
  Beta virt. eigenvalues --    0.11108   0.11589   0.12761   0.14009   0.15291
  Beta virt. eigenvalues --    0.16793   0.18294   0.20918   0.23632   0.23920

 Mulliken charges and spin densities:
               1          2
     1  C   -0.161799  -0.029804
     2  H    0.123776   0.003957
     3  H    0.127627   0.004319
     4  C   -0.277329   0.669229
     5  H    0.130115  -0.013420
     6  H    0.134482  -0.012848
     7  C   -0.054464  -0.003785
     8  H    0.062501   0.001269
     9  H    0.101489  -0.000888
    10  H    0.084945   0.002057
    11  O   -0.185466   0.023352
    12  O   -0.221184   0.397453
    13  H    0.212975  -0.074460
    14  C   -0.044681   0.003895
    15  C   -0.203440   0.030482
    16  H    0.170453  -0.000809
 Sum of Mulliken charges =  -0.00000   1.00000

 Dipole moment (field-independent basis, Debye):
    X=             -1.1428    Y=             -1.7641    Z=             -0.1306  Tot=              2.1060
 Quadrupole moment (field-independent basis, Debye-Ang):
   XX=            -43.2095   YY=            -43.0752   ZZ=            -43.7251
   XY=             -6.0811   XZ=              1.7815   YZ=             -0.0096

  Exact polarizability: 131.117  -2.689  58.417   9.463   0.826  56.558
 Approx polarizability: 112.217   1.797  66.397  10.184   3.677  68.403

 ******    1 imaginary frequencies (negative Signs) ******

                      1                      2                      3
                      A                      A                      A
 Frequencies --  -1895.7484                27.1024                42.0627
 Red. masses --      1.1125                 3.0247                 2.7185
 Frc consts  --      2.3557                 0.0013                 0.0028
 IR Inten    --   2346.7544                 1.4086                 0.4568

                      4                      5                      6
                      A                      A                      A
 Frequencies --     67.8097               102.3194               162.8535
 Red. masses --      3.1167                 3.4087                 2.1354
 Frc consts  --      0.0084                 0.0210                 0.0334
 IR Inten    --      2.3631                 2.6304                 1.2029

                      7                      8                      9
                      A                      A                      A
 Frequencies --    183.3320               254.2983               336.0808
 Red. masses --      3.8148                 1.5449                 3.0268
 Frc consts  --      0.0755                 0.0589                 0.2014
 IR Inten    --      1.1414                 3.7040                 6.4747

                     10                     11                     12
                      A                      A                      A
 Frequencies --    446.1964               476.1295               532.4056
 Red. masses --      2.7072                 4.8016                 1.4366
 Frc consts  --      0.3176                 0.6413                 0.2399
 IR Inten    --      9.9246                 8.7266                 1.7533

                     13                     14                     15
                      A                      A                      A
 Frequencies --    621.7949               656.4213               660.8056
 Red. masses --      2.6781                 1.2399                 1.2516
 Frc consts  --      0.6101                 0.3148                 0.3220
 IR Inten    --      3.0263                44.5922                43.8724

                     16                     17                     18
                      A                      A                      A
 Frequencies --    799.1733               890.8472               913.7731
 Red. masses --      1.1551                 2.5181                 5.2179
 Frc consts  --      0.4347                 1.1774                 2.5670
 IR Inten    --      0.5230                 2.8913                18.7447

                     19                     20                     21
                      A                      A                      A
 Frequencies --   1008.0605              1052.1162              1055.8070
 Red. masses --      1.6311                 3.3551                 5.0395
 Frc consts  --      0.9766                 2.1882                 3.3098
 IR Inten    --     14.8053                 6.6518                29.0977

                     22                     23                     24
                      A                      A                      A
 Frequencies --   1112.8614              1161.9030              1177.6733
 Red. masses --      1.4448                 1.2476                 1.2708
 Frc consts  --      1.0543                 0.9924                 1.0384
 IR Inten    --      0.2883                15.7153                 3.1016

                     25                     26                     27
                      A                      A                      A
 Frequencies --   1216.5960              1299.9744              1337.9688
 Red. masses --      1.5785                 1.1283                 1.4103
 Frc consts  --      1.3765                 1.1234                 1.4875
 IR Inten    --      2.5050                 0.2282                 6.0333

                     28                     29                     30
                      A                      A                      A
 Frequencies --   1455.5412              1461.5548              1475.1820
 Red. masses --      1.0974                 1.1034                 1.1375
 Frc consts  --      1.3699                 1.3888                 1.4585
 IR Inten    --      1.2667                 9.0285                 1.7266

                     31                     32                     33
                      A                      A                      A
 Frequencies --   1482.3345              1487.4854              1517.8743
 Red. masses --      1.0531                 1.0840                 1.0520
 Frc consts  --      1.3634                 1.4132                 1.4280
 IR Inten    --      9.1520                 3.8333                14.1127

                     34                     35                     36
                      A                      A                      A
 Frequencies --   2181.0168              3033.2399              3059.2854
 Red. masses --      6.1137                 1.0325                 1.0579
 Frc consts  --     17.1344                 5.5971                 5.8337
 IR Inten    --      1.8005                32.4840                 7.2786

                     37                     38                     39
                      A                      A                      A
 Frequencies --   3095.6080              3111.0408              3112.7685
 Red. masses --      1.1030                 1.1006                 1.0533
 Frc consts  --      6.2273                 6.2761                 6.0129
 IR Inten    --      4.5893                44.6681                 8.2472

                     40                     41                     42
                      A                      A                      A
 Frequencies --   3146.9185              3202.4314              3489.7733
 Red. masses --      1.1048                 1.1130                 1.1551
 Frc consts  --      6.4461                 6.7251                 8.2884
 IR Inten    --     14.4477                 6.4117                71.6091

 - Thermochemistry -
 -------------------
 Temperature   298.150 Kelvin.  Pressure   1.00000 Atm.
 Atom     1 has atomic number  6 and mass  12.00000

 Molecular mass:   101.06025 amu.
 Principal axes and moments of inertia in atomic units:
                           1         2         3
     Eigenvalues --   251.649132194.300602288.45516
           X            0.99983  -0.01798   0.00408
           Y            0.01812   0.99916  -0.03668
           Z           -0.00342   0.03675   0.99932
 This molecule is an asymmetric top.
 Rotational symmetry number  1.
 Rotational temperatures (Kelvin)      0.34419     0.03947     0.03785
 Rotational constants (GHZ):           7.17166     0.82247     0.78863
    1 imaginary frequencies ignored.
 Zero-point vibrational energy     322444.0 (Joules/Mol)
                                   77.06596 (Kcal/Mol)
 Warning -- explicit consideration of  11 degrees of freedom as
           vibrations may cause significant error
 Vibrational temperatures:     38.99    60.52    97.56   147.21   234.31
          (Kelvin)            263.77   365.88   483.55   641.98   685.04
                              766.01   894.62   944.44   950.75  1149.83
                             1281.73  1314.72  1450.37  1513.76  1519.07
                             1601.16  1671.72  1694.41  1750.41  1870.37
                             1925.04  2094.20  2102.85  2122.46  2132.75
                             2140.16  2183.88  3138.00  4364.16  4401.63
                             4453.89  4476.09  4478.58  4527.71  4607.58
                             5021.01

 Zero-point correction=                           0.122812 (Hartree/Particle)
 Thermal correction to Energy=                    0.132506
 Thermal correction to Enthalpy=                  0.133450
 Thermal correction to Gibbs Free Energy=         0.085653
 Sum of electronic and zero-point Energies=           -345.875211
 Sum of electronic and thermal Energies=              -345.865517
 Sum of electronic and thermal Enthalpies=            -345.864573
 Sum of electronic and thermal Free Energies=         -345.912370

                     E (Thermal)             CV                S
                      KCal/Mol        Cal/Mol-Kelvin    Cal/Mol-Kelvin
 Total                   83.149             31.952            100.598
 Electronic               0.000              0.000              1.377
 Translational            0.889              2.981             39.749
 Rotational               0.889              2.981             28.626
 Vibrational             81.371             25.990             30.845
 Vibration     1          0.593              1.984              6.031
 Vibration     2          0.595              1.980              5.159
 Vibration     3          0.598              1.970              4.216
 Vibration     4          0.604              1.947              3.410
 Vibration     5          0.623              1.888              2.516
 Vibration     6          0.631              1.863              2.294
 Vibration     7          0.665              1.756              1.701
 Vibration     8          0.717              1.603              1.231
 Vibration     9          0.805              1.369              0.807
 Vibration    10          0.833              1.303              0.721
 Vibration    11          0.887              1.178              0.582

 Optimization completed.
    -- Stationary point found.
 Normal termination of Gaussian 16 at Tue Jun  4 08:40:14 2019.
