 Gaussian 16, Revision B.01,
 Gaussian 16:  ES64L-G16RevB.01 20-Dec-2017

 ----------------------------------------------------------------------
 # opt=(calcfc,ts,noeigentest,maxcyc=500,modredundant) uB2PLYPD3/cc-pvt
 z scf=maxcyc=500 nosymm
 ----------------------------------------------------------------------

 -------------------
 Title Card Required
 -------------------
 Symbolic Z-matrix:
 Charge =  0 Multiplicity = 2

 SCF Done:  E(UB2PLYPD3) =  -345.576074705     A.U. after   21 cycles
 E2(B2PLYPD3) =    -0.4339571603D+00 E(B2PLYPD3) =    -0.34601003186545D+03
 E2(B2PLYPD3) =    -0.4339571603D+00 E(B2PLYPD3) =    -0.34601003186545D+03

  Exact polarizability: 145.881   5.990  68.794   1.760  -3.042  54.958
 Approx polarizability: 122.984  13.653  77.110   1.861  -6.057  66.719

 Optimization completed.
    -- Stationary point found.
 SCF Done:  E(UB2PLYPD3) =  -345.575907093     A.U. after   15 cycles
 E2(B2PLYPD3) =    -0.4339006476D+00 E(B2PLYPD3) =    -0.34600980774063D+03
 SCF Done:  E(UB2PLYPD3) =  -345.575933956     A.U. after   14 cycles
 E2(B2PLYPD3) =    -0.4338989159D+00 E(B2PLYPD3) =    -0.34600983287234D+03
 SCF Done:  E(UB2PLYPD3) =  -345.575970129     A.U. after   16 cycles
 E2(B2PLYPD3) =    -0.4338621895D+00 E(B2PLYPD3) =    -0.34600983231892D+03
 SCF Done:  E(UB2PLYPD3) =  -345.575955101     A.U. after   14 cycles
 E2(B2PLYPD3) =    -0.4338791241D+00 E(B2PLYPD3) =    -0.34600983422556D+03
 SCF Done:  E(UB2PLYPD3) =  -345.575953886     A.U. after   10 cycles
 E2(B2PLYPD3) =    -0.4338803514D+00 E(B2PLYPD3) =    -0.34600983423779D+03
 Optimization completed.
 SCF Done:  E(UB2PLYPD3) =  -345.575389292     A.U. after   14 cycles
 E2(B2PLYPD3) =    -0.4338627861D+00 E(B2PLYPD3) =    -0.34600925207858D+03
 SCF Done:  E(UB2PLYPD3) =  -345.575392585     A.U. after   15 cycles
 E2(B2PLYPD3) =    -0.4338813980D+00 E(B2PLYPD3) =    -0.34600927398311D+03
 SCF Done:  E(UB2PLYPD3) =  -345.573169410     A.U. after   22 cycles
 E2(B2PLYPD3) =    -0.4347871743D+00 E(B2PLYPD3) =    -0.34600795658434D+03
 SCF Done:  E(UB2PLYPD3) =  -345.572039484     A.U. after   22 cycles
 E2(B2PLYPD3) =    -0.4336373298D+00 E(B2PLYPD3) =    -0.34600567681394D+03
 E2(B2PLYPD3) =    -0.4342456732D+00 E(B2PLYPD3) =    -0.34600802665095D+03
 E2(B2PLYPD3) =    -0.4347082656D+00 E(B2PLYPD3) =    -0.34600996719131D+03
 E2(B2PLYPD3) =    -0.4364836124D+00 E(B2PLYPD3) =    -0.34599960672857D+03
 E2(B2PLYPD3) =    -0.4329711759D+00 E(B2PLYPD3) =    -0.34601011685415D+03
 E2(B2PLYPD3) =    -0.4338526033D+00 E(B2PLYPD3) =    -0.34601109891108D+03
 E2(B2PLYPD3) =    -0.4346678130D+00 E(B2PLYPD3) =    -0.34601057152733D+03
 E2(B2PLYPD3) =    -0.4346480290D+00 E(B2PLYPD3) =    -0.34601068580131D+03
 E2(B2PLYPD3) =    -0.4347370603D+00 E(B2PLYPD3) =    -0.34601076388889D+03
 E2(B2PLYPD3) =    -0.4348763748D+00 E(B2PLYPD3) =    -0.34601072860306D+03
 E2(B2PLYPD3) =    -0.4351881065D+00 E(B2PLYPD3) =    -0.34600880373000D+03
 E2(B2PLYPD3) =    -0.4351531007D+00 E(B2PLYPD3) =    -0.34600957782885D+03
 E2(B2PLYPD3) =    -0.4351051198D+00 E(B2PLYPD3) =    -0.34600959297917D+03
 E2(B2PLYPD3) =    -0.4350986818D+00 E(B2PLYPD3) =    -0.34600959318181D+03
 E2(B2PLYPD3) =    -0.4350927848D+00 E(B2PLYPD3) =    -0.34600959327448D+03
 E2(B2PLYPD3) =    -0.4350927516D+00 E(B2PLYPD3) =    -0.34600959331299D+03
 E2(B2PLYPD3) =    -0.4350655126D+00 E(B2PLYPD3) =    -0.34601041712818D+03
 E2(B2PLYPD3) =    -0.4349743607D+00 E(B2PLYPD3) =    -0.34601042479740D+03
 E2(B2PLYPD3) =    -0.4350035808D+00 E(B2PLYPD3) =    -0.34601042731198D+03
 E2(B2PLYPD3) =    -0.4350022651D+00 E(B2PLYPD3) =    -0.34601042740037D+03
 SCF Done:  E(UB2PLYPD3) =  -345.576077875     A.U. after   15 cycles
 E2(B2PLYPD3) =    -0.4349863745D+00 E(B2PLYPD3) =    -0.34601106424948D+03
 SCF Done:  E(UB2PLYPD3) =  -345.576140034     A.U. after   15 cycles
 E2(B2PLYPD3) =    -0.4349383474D+00 E(B2PLYPD3) =    -0.34601107838114D+03
 SCF Done:  E(UB2PLYPD3) =  -345.576143310     A.U. after   10 cycles
 E2(B2PLYPD3) =    -0.4349351980D+00 E(B2PLYPD3) =    -0.34601107850757D+03
 SCF Done:  E(UB2PLYPD3) =  -345.576141319     A.U. after   10 cycles
 E2(B2PLYPD3) =    -0.4349372225D+00 E(B2PLYPD3) =    -0.34601107854123D+03
 SCF Done:  E(UB2PLYPD3) =  -345.576140738     A.U. after    9 cycles
 E2(B2PLYPD3) =    -0.4349378275D+00 E(B2PLYPD3) =    -0.34601107856515D+03
    -- Stationary point found.
 SCF Done:  E(UB2PLYPD3) =  -345.576435990     A.U. after   15 cycles
 E2(B2PLYPD3) =    -0.4349356673D+00 E(B2PLYPD3) =    -0.34601137165691D+03
 SCF Done:  E(UB2PLYPD3) =  -345.576474350     A.U. after   14 cycles
 E2(B2PLYPD3) =    -0.4349191118D+00 E(B2PLYPD3) =    -0.34601139346185D+03
 SCF Done:  E(UB2PLYPD3) =  -345.576499173     A.U. after   12 cycles
 E2(B2PLYPD3) =    -0.4348937908D+00 E(B2PLYPD3) =    -0.34601139296398D+03
 SCF Done:  E(UB2PLYPD3) =  -345.576483394     A.U. after   12 cycles
 E2(B2PLYPD3) =    -0.4349105291D+00 E(B2PLYPD3) =    -0.34601139392308D+03
 SCF Done:  E(UB2PLYPD3) =  -345.576482115     A.U. after    9 cycles
 E2(B2PLYPD3) =    -0.4349118429D+00 E(B2PLYPD3) =    -0.34601139395829D+03
 Optimization completed.
    -- Stationary point found.

                          Input orientation:
 ---------------------------------------------------------------------
 Center     Atomic      Atomic             Coordinates (Angstroms)
 Number     Number       Type             X           Y           Z
 ---------------------------------------------------------------------
      1          6           0       -0.825520    0.397016   -1.281856
      2          1           0       -1.119419    0.031581   -2.263513
      3          6           0        1.811721   -0.570056    1.180754
      4          1           0        1.068747    0.205814    1.360743
      5          1           0        1.812046   -1.280174    2.004439
      6          1           0        2.798773   -0.128264    1.058412
      7          8           0        1.467587   -1.334978    0.028711
      8          8           0        1.532770   -0.499916   -1.083831
      9          1           0        0.410286   -0.085654   -1.208676
     10          6           0       -1.475863   -0.273200   -0.214731
     11          6           0       -1.965149   -0.861557    0.723631
     12          1           0       -2.415294   -1.379345    1.531663
     13          6           0       -0.680697    1.901094   -1.186648
     14          1           0        0.021502    2.266077   -1.933491
     15          1           0       -1.641129    2.391511   -1.356625
     16          1           0       -0.326336    2.195751   -0.201479
 ---------------------------------------------------------------------

 Alpha  occ. eigenvalues --  -19.79133 -19.78840 -10.66128 -10.65926 -10.63086
 Alpha  occ. eigenvalues --  -10.62637 -10.62433  -1.28273  -1.01815  -0.93713
 Alpha  occ. eigenvalues --   -0.85809  -0.77766  -0.75837  -0.63043  -0.61047
 Alpha  occ. eigenvalues --   -0.56809  -0.55649  -0.54769  -0.51994  -0.49344
 Alpha  occ. eigenvalues --   -0.48048  -0.45284  -0.44266  -0.39833  -0.36627
 Alpha  occ. eigenvalues --   -0.35551  -0.33459  -0.28562
 Alpha virt. eigenvalues --    0.06877   0.08941   0.09729   0.10533   0.11270
 Alpha virt. eigenvalues --    0.12190   0.13433   0.15352   0.15365   0.15763
 Alpha virt. eigenvalues --    0.19277   0.20409   0.23302   0.24674   0.25876

  Beta  occ. eigenvalues --  -19.78841 -19.77158 -10.65941 -10.65082 -10.63448
  Beta  occ. eigenvalues --  -10.62489 -10.62101  -1.26155  -0.98762  -0.92369
  Beta  occ. eigenvalues --   -0.84905  -0.77271  -0.74454  -0.61892  -0.58135
  Beta  occ. eigenvalues --   -0.56092  -0.54427  -0.54355  -0.50362  -0.48592
  Beta  occ. eigenvalues --   -0.45666  -0.44980  -0.43411  -0.36380  -0.35315
  Beta  occ. eigenvalues --   -0.33215  -0.31368
  Beta virt. eigenvalues --   -0.06334   0.07054   0.08934   0.10370   0.11259
  Beta virt. eigenvalues --    0.11383   0.12304   0.13889   0.15482   0.15674
  Beta virt. eigenvalues --    0.16016   0.19910   0.20582   0.23785   0.24978

 Mulliken charges and spin densities:
               1          2
     1  C   -0.182419   0.492015
     2  H    0.140142  -0.011910
     3  C   -0.065337  -0.007785
     4  H    0.075592   0.004717
     5  H    0.097869  -0.000966
     6  H    0.094612   0.001674
     7  O   -0.170161   0.056359
     8  O   -0.221626   0.441277
     9  H    0.211230  -0.083092
    10  C   -0.010811  -0.211026
    11  C   -0.190223   0.321637
    12  H    0.169496  -0.010460
    13  C   -0.277902  -0.024609
    14  H    0.110933   0.003245
    15  H    0.110500   0.025742
    16  H    0.108105   0.003182
 Sum of Mulliken charges =  -0.00000   1.00000

 Dipole moment (field-independent basis, Debye):
    X=             -1.1340    Y=              1.5960    Z=              1.3182  Tot=              2.3602
 Quadrupole moment (field-independent basis, Debye-Ang):
   XX=            -44.0651   YY=            -44.1217   ZZ=            -38.4602
   XY=              2.4344   XZ=              3.0793   YZ=             -4.4927

 1\1\GINC-N168\Scan\UB2PLYPD3-FC\CC-pVTZ\C5H9O2(2)\ROOT\21-Jun-2019\0\\
 # opt=(calcfc,ts,noeigentest,maxcyc=500,modredundant) uB2PLYPD3/cc-pvt
 z scf=maxcyc=500 nosymm\\Title Card Required\\0,2\C,-0.8255199052,0.39
 7015742,-1.2818562781\H,-1.1194189223,0.0315810613,-2.2635127897\C,1.8
 117205251,-0.5700561068,1.1807536151\H,1.0687471646,0.2058136937,1.360
 7433395\H,1.8120464438,-1.2801742698,2.004439388\H,2.798772786,-0.1282
 640667,1.0584121471\O,1.4675874646,-1.3349775433,0.0287113828\O,1.5327
 704161,-0.4999162236,-1.083831265\H,0.4102861345,-0.0856544697,-1.2086

 Normal termination of Gaussian 16 at Fri Jun 21 06:57:42 2019.
