 Gaussian 16, Revision B.01,
 Gaussian 16:  ES64L-G16RevB.01 20-Dec-2017

 ----------------------------------------------------------------------
 # opt=(calcfc,ts,noeigentest,maxcyc=500) freq=noraman uB2PLYPD3/cc-pvt
 z
 ----------------------------------------------------------------------

 -------------------
 Title Card Required
 -------------------
 Symbolic Z-matrix:
 Charge =  0 Multiplicity = 2

 SCF Done:  E(UB2PLYPD3) =  -346.804989298     A.U. after   21 cycles
 E2(B2PLYPD3) =    -0.4392055587D+00 E(B2PLYPD3) =    -0.34724419485670D+03
 E2(B2PLYPD3) =    -0.4392055587D+00 E(B2PLYPD3) =    -0.34724419485670D+03
 SCF Done:  E(UB2PLYPD3) =  -346.804976257     A.U. after   12 cycles
 E2(B2PLYPD3) =    -0.4392213896D+00 E(B2PLYPD3) =    -0.34724419764654D+03
 Optimization completed.
    -- Stationary point found.

 1\1\GINC-N143\FTS\UB2PLYPD3-FC\CC-pVTZ\C5H11O2(2)\ROOT\24-Jun-2019\0\\
 # opt=(calcfc,ts,noeigentest,maxcyc=500) freq=noraman uB2PLYPD3/cc-pvt
 z\\Title Card Required\\0,2\C,-1.5066584863,-0.9979254949,-0.575204371
 1\H,-1.4438753131,-1.3054666947,-1.6217840805\H,-2.3701205832,-1.52246
 24542,-0.1500422596\C,-0.2587969346,-1.4374909141,0.1459093949\H,-0.17
 05147838,-1.112533119,1.1786427656\H,0.0477456292,-2.4668807345,-0.010
 2078447\C,1.9140324928,1.579514123,0.6120280801\H,0.8840794969,1.51585
 51688,0.9664446793\H,2.5658671638,1.9007707228,1.4218361957\H,1.976504

 Normal termination of Gaussian 16 at Mon Jun 24 18:52:13 2019.

 ----------------------------------------------------------------------
 #N Geom=AllCheck Guess=TCheck SCRF=Check GenChk UB2PLYPD3(FC)/CC-pVTZ
 Freq
 ----------------------------------------------------------------------

 Structure from the checkpoint file:  "/localscratch/353443/Gau-48128.chk"
 -------------------
 Title Card Required
 -------------------
 Charge =  0 Multiplicity = 2

                         Standard orientation:
 ---------------------------------------------------------------------
 Center     Atomic      Atomic             Coordinates (Angstroms)
 Number     Number       Type             X           Y           Z
 ---------------------------------------------------------------------
      1          6           0       -1.691819   -0.981119   -0.129190
      2          1           0       -1.747925   -1.529937   -1.072324
      3          1           0       -2.581809   -1.262243    0.445575
      4          6           0       -0.461140   -1.415254    0.624029
      5          1           0       -0.254448   -0.874646    1.543241
      6          1           0       -0.303309   -2.485758    0.708261
      7          6           0        2.113540    1.282416    0.257464
      8          1           0        1.113451    1.451994    0.659374
      9          1           0        2.860275    1.686417    0.937944
     10          1           0        2.203856    1.752268   -0.720765
     11          8           0        2.399242   -0.106519    0.175041
     12          8           0        1.515110   -0.673695   -0.764591
     13          1           0        0.621512   -1.044284   -0.124929
     14          6           0       -1.722273    0.493897   -0.398772
     15          6           0       -2.619357    1.335761    0.104566
     16          1           0       -0.936023    0.870437   -1.042515
     17          1           0       -2.589375    2.392197   -0.118400
     18          1           0       -3.414724    0.991059    0.752351
 ---------------------------------------------------------------------

 SCF Done:  E(UB2PLYPD3) =  -346.804976257     A.U. after    1 cycles
 E2(B2PLYPD3) =    -0.4392213846D+00 E(B2PLYPD3) =    -0.34724419764153D+03
 E2(B2PLYPD3) =    -0.4392213846D+00 E(B2PLYPD3) =    -0.34724419764153D+03

 The electronic state is 2-A.
 Alpha  occ. eigenvalues --  -19.78513 -19.78489 -10.65907 -10.64207 -10.63097
 Alpha  occ. eigenvalues --  -10.62565 -10.61310  -1.27298  -1.02115  -0.93579
 Alpha  occ. eigenvalues --   -0.85606  -0.77660  -0.74045  -0.65307  -0.60538
 Alpha  occ. eigenvalues --   -0.56186  -0.55507  -0.54417  -0.52516  -0.51038
 Alpha  occ. eigenvalues --   -0.48825  -0.46930  -0.44406  -0.43981  -0.41260
 Alpha  occ. eigenvalues --   -0.36860  -0.36613  -0.31472  -0.30232
 Alpha virt. eigenvalues --    0.05819   0.08224   0.09227   0.10985   0.11233
 Alpha virt. eigenvalues --    0.12989   0.13664   0.15179   0.15313   0.16185
 Alpha virt. eigenvalues --    0.16735   0.18140   0.20870   0.23701   0.24910

  Beta  occ. eigenvalues --  -19.78362 -19.76911 -10.65914 -10.63158 -10.62929
  Beta  occ. eigenvalues --  -10.62533 -10.61327  -1.25445  -0.99264  -0.92852
  Beta  occ. eigenvalues --   -0.84172  -0.77250  -0.72020  -0.64761  -0.57484
  Beta  occ. eigenvalues --   -0.55719  -0.54422  -0.54054  -0.51961  -0.49810
  Beta  occ. eigenvalues --   -0.46241  -0.46152  -0.43794  -0.42836  -0.41029
  Beta  occ. eigenvalues --   -0.35431  -0.33468  -0.31399
  Beta virt. eigenvalues --   -0.04699   0.05976   0.08328   0.09327   0.11170
  Beta virt. eigenvalues --    0.11347   0.13236   0.14251   0.15295   0.15466
  Beta virt. eigenvalues --    0.16333   0.16835   0.18166   0.21523   0.24011

 Mulliken charges and spin densities:
               1          2
     1  C   -0.141351  -0.032700
     2  H    0.110105   0.005534
     3  H    0.102069   0.037942
     4  C   -0.286665   0.658128
     5  H    0.122044  -0.013322
     6  H    0.129364  -0.012768
     7  C   -0.062814  -0.003759
     8  H    0.069843   0.001080
     9  H    0.104768  -0.000779
    10  H    0.083135   0.002474
    11  O   -0.187765   0.024043
    12  O   -0.228995   0.408014
    13  H    0.212310  -0.078169
    14  C   -0.113289   0.013562
    15  C   -0.319113  -0.010658
    16  H    0.155060   0.000509
    17  H    0.128945   0.000372
    18  H    0.122348   0.000497
 Sum of Mulliken charges =  -0.00000   1.00000

 Dipole moment (field-independent basis, Debye):
    X=             -1.9101    Y=              0.8769    Z=              1.1262  Tot=              2.3845
 Quadrupole moment (field-independent basis, Debye-Ang):
   XX=            -48.0845   YY=            -40.8173   ZZ=            -45.6172
   XY=              5.5472   XZ=              0.3237   YZ=             -0.6567

  Exact polarizability: 104.253   7.178  82.275  -8.737  -0.416  61.127
 Approx polarizability:  95.345   1.087  84.335  -8.430   3.528  75.559

 ******    1 imaginary frequencies (negative Signs) ******

                      1                      2                      3
                      A                      A                      A
 Frequencies --  -1929.1693                34.5529                56.8675
 Red. masses --      1.1080                 3.6812                 3.0423
 Frc consts  --      2.4295                 0.0026                 0.0058
 IR Inten    --   1963.0943                 1.7878                 3.0385

                      4                      5                      6
                      A                      A                      A
 Frequencies --     94.3679               103.8446               123.8707
 Red. masses --      2.2028                 3.4691                 2.3411
 Frc consts  --      0.0116                 0.0220                 0.0212
 IR Inten    --      0.6178                 2.8340                 1.0118

                      7                      8                      9
                      A                      A                      A
 Frequencies --    185.0416               257.2143               330.6285
 Red. masses --      2.0699                 1.5312                 1.8755
 Frc consts  --      0.0418                 0.0597                 0.1208
 IR Inten    --      0.6197                 2.8045                 0.7016

                     10                     11                     12
                      A                      A                      A
 Frequencies --    424.7965               454.9043               520.2094
 Red. masses --      1.8675                 2.4173                 1.4676
 Frc consts  --      0.1986                 0.2947                 0.2340
 IR Inten    --      1.8749                 2.5021                 2.4369

                     13                     14                     15
                      A                      A                      A
 Frequencies --    584.1823               670.7909               820.2230
 Red. masses --      3.2781                 1.5504                 1.2806
 Frc consts  --      0.6591                 0.4110                 0.5076
 IR Inten    --      0.6994                11.1894                10.3302

                     16                     17                     18
                      A                      A                      A
 Frequencies --    864.8714               913.3815               956.2075
 Red. masses --      1.7851                 5.1849                 1.3376
 Frc consts  --      0.7867                 2.5486                 0.7206
 IR Inten    --      5.7199                14.6341                40.4630

                     19                     20                     21
                      A                      A                      A
 Frequencies --    980.9774              1043.4565              1044.4689
 Red. masses --      1.2149                 2.1090                 1.0947
 Frc consts  --      0.6888                 1.3529                 0.7036
 IR Inten    --     15.1993                17.0551                19.0033

                     22                     23                     24
                      A                      A                      A
 Frequencies --   1056.4890              1086.0520              1142.3823
 Red. masses --      3.8476                 1.4891                 1.6100
 Frc consts  --      2.5303                 1.0349                 1.2379
 IR Inten    --     27.2171                 6.3790                 7.8100

                     25                     26                     27
                      A                      A                      A
 Frequencies --   1179.0567              1189.4148              1217.8032
 Red. masses --      1.2699                 1.6638                 1.5781
 Frc consts  --      1.0401                 1.3868                 1.3789
 IR Inten    --      2.7199                 3.9694                 2.2395

                     28                     29                     30
                      A                      A                      A
 Frequencies --   1265.5810              1328.8090              1354.2501
 Red. masses --      1.2303                 1.2364                 1.4261
 Frc consts  --      1.1610                 1.2862                 1.5409
 IR Inten    --      9.1910                 1.4395                 2.5012

                     31                     32                     33
                      A                      A                      A
 Frequencies --   1454.7663              1461.0719              1462.4764
 Red. masses --      1.0765                 1.1227                 1.1507
 Frc consts  --      1.3423                 1.4121                 1.4501
 IR Inten    --      0.1174                 1.7866                 2.4003

                     34                     35                     36
                      A                      A                      A
 Frequencies --   1470.9306              1481.4266              1483.0910
 Red. masses --      1.1410                 1.1200                 1.0663
 Frc consts  --      1.4546                 1.4482                 1.3819
 IR Inten    --      6.5669                 4.7368                11.3904

                     37                     38                     39
                      A                      A                      A
 Frequencies --   1520.7861              1705.7512              3006.1222
 Red. masses --      1.0520                 4.4060                 1.0651
 Frc consts  --      1.4335                 7.5532                 5.6712
 IR Inten    --     15.0261                10.1753                14.1188

                     40                     41                     42
                      A                      A                      A
 Frequencies --   3036.2334              3059.6570              3100.0305
 Red. masses --      1.0301                 1.0929                 1.0530
 Frc consts  --      5.5952                 6.0279                 5.9623
 IR Inten    --     30.9419                12.1025                15.4401

                     43                     44                     45
                      A                      A                      A
 Frequencies --   3112.7584              3144.0700              3152.8139
 Red. masses --      1.1049                 1.1043                 1.0583
 Frc consts  --      6.3075                 6.4314                 6.1979
 IR Inten    --     39.9296                16.1296                 8.6408

                     46                     47                     48
                      A                      A                      A
 Frequencies --   3169.9678              3187.8053              3242.2628
 Red. masses --      1.0918                 1.1122                 1.1155
 Frc consts  --      6.4639                 6.6594                 6.9092
 IR Inten    --      2.5908                12.0570                11.5492

 - Thermochemistry -
 -------------------
 Temperature   298.150 Kelvin.  Pressure   1.00000 Atm.
 Atom     1 has atomic number  6 and mass  12.00000

 Molecular mass:   103.07590 amu.
 Principal axes and moments of inertia in atomic units:
                           1         2         3
     Eigenvalues --   499.653701451.823181770.71993
           X            0.99974   0.02261   0.00115
           Y           -0.02259   0.99968  -0.01136
           Z           -0.00141   0.01133   0.99993
 This molecule is an asymmetric top.
 Rotational symmetry number  1.
 Warning -- assumption of classical behavior for rotation
           may cause significant error
 Rotational temperatures (Kelvin)      0.17335     0.05966     0.04891
 Rotational constants (GHZ):           3.61198     1.24309     1.01921
    1 imaginary frequencies ignored.
 Zero-point vibrational energy     386015.3 (Joules/Mol)
                                   92.25987 (Kcal/Mol)
 Warning -- explicit consideration of  12 degrees of freedom as
           vibrations may cause significant error
 Vibrational temperatures:     49.71    81.82   135.77   149.41   178.22
          (Kelvin)            266.23   370.07   475.70   611.19   654.51
                              748.47   840.51   965.12  1180.12  1244.36
                             1314.15  1375.77  1411.41  1501.30  1502.76
                             1520.05  1562.59  1643.63  1696.40  1711.30
                             1752.15  1820.89  1911.86  1948.46  2093.08
                             2102.16  2104.18  2116.34  2131.44  2133.84
                             2188.07  2454.20  4325.14  4368.46  4402.16
                             4460.25  4478.57  4523.62  4536.20  4560.88
                             4586.54  4664.89

 Zero-point correction=                           0.147025 (Hartree/Particle)
 Thermal correction to Energy=                    0.156734
 Thermal correction to Enthalpy=                  0.157678
 Thermal correction to Gibbs Free Energy=         0.110366
 Sum of electronic and zero-point Energies=           -347.097172
 Sum of electronic and thermal Energies=              -347.087464
 Sum of electronic and thermal Enthalpies=            -347.086520
 Sum of electronic and thermal Free Energies=         -347.133832

                     E (Thermal)             CV                S
                      KCal/Mol        Cal/Mol-Kelvin    Cal/Mol-Kelvin
 Total                   98.352             32.548             99.576
 Electronic               0.000              0.000              1.377
 Translational            0.889              2.981             39.808
 Rotational               0.889              2.981             28.642
 Vibrational             96.574             26.587             29.748
 Vibration     1          0.594              1.983              5.549
 Vibration     2          0.596              1.975              4.563
 Vibration     3          0.603              1.953              3.567
 Vibration     4          0.605              1.946              3.381
 Vibration     5          0.610              1.929              3.039
 Vibration     6          0.631              1.860              2.277
 Vibration     7          0.667              1.751              1.681
 Vibration     8          0.713              1.614              1.257
 Vibration     9          0.787              1.416              0.876
 Vibration    10          0.813              1.350              0.781
 Vibration    11          0.875              1.205              0.609
 Vibration    12          0.941              1.066              0.478

 Optimization completed.
    -- Stationary point found.
 Normal termination of Gaussian 16 at Mon Jun 24 20:49:03 2019.
