 Gaussian 16, Revision B.01,
 Gaussian 16:  ES64L-G16RevB.01 20-Dec-2017

 ----------------------------------------------------------------------
 # opt=(calcfc,ts,noeigentest,maxcyc=500) freq=noraman uB2PLYPD3/cc-pvt
 z
 ----------------------------------------------------------------------

 -------------------
 Title Card Required
 -------------------
 Symbolic Z-matrix:
 Charge =  0 Multiplicity = 2

 SCF Done:  E(UB2PLYPD3) =  -345.576567139     A.U. after   21 cycles
 E2(B2PLYPD3) =    -0.4346632764D+00 E(B2PLYPD3) =    -0.34601123041515D+03
 E2(B2PLYPD3) =    -0.4346632764D+00 E(B2PLYPD3) =    -0.34601123041515D+03
 SCF Done:  E(UB2PLYPD3) =  -345.576417666     A.U. after   19 cycles
 E2(B2PLYPD3) =    -0.4349764335D+00 E(B2PLYPD3) =    -0.34601139409903D+03
 SCF Done:  E(UB2PLYPD3) =  -345.576529874     A.U. after   16 cycles
 E2(B2PLYPD3) =    -0.4348779933D+00 E(B2PLYPD3) =    -0.34601140786737D+03
 SCF Done:  E(UB2PLYPD3) =  -345.576502901     A.U. after   13 cycles
 E2(B2PLYPD3) =    -0.4349073289D+00 E(B2PLYPD3) =    -0.34601141023012D+03
 SCF Done:  E(UB2PLYPD3) =  -345.576499014     A.U. after   10 cycles
 E2(B2PLYPD3) =    -0.4349112055D+00 E(B2PLYPD3) =    -0.34601141021997D+03
 Optimization completed.
    -- Stationary point found.
 Normal termination of Gaussian 16 at Mon Jun 24 12:22:47 2019.

 ----------------------------------------------------------------------
 #N Geom=AllCheck Guess=TCheck SCRF=Check GenChk UB2PLYPD3(FC)/CC-pVTZ
 Freq
 ----------------------------------------------------------------------

 Structure from the checkpoint file:  "/localscratch/353443/Gau-98051.chk"
 -------------------
 Title Card Required
 -------------------
 Charge =  0 Multiplicity = 2

                         Standard orientation:
 ---------------------------------------------------------------------
 Center     Atomic      Atomic             Coordinates (Angstroms)
 Number     Number       Type             X           Y           Z
 ---------------------------------------------------------------------
      1          6           0        1.345331   -0.422631   -0.451518
      2          1           0        1.743084   -0.676003   -1.431851
      3          6           0       -2.090448    0.217270    0.872987
      4          1           0       -1.184042    0.310093    1.469754
      5          1           0       -2.681218    1.126774    0.953711
      6          1           0       -2.671197   -0.644075    1.197378
      7          8           0       -1.769217    0.102562   -0.510673
      8          8           0       -1.082396   -1.093820   -0.700647
      9          1           0        0.077831   -0.786646   -0.612340
     10          6           0        1.233683    0.973743   -0.231282
     11          6           0        1.068053    2.155888   -0.028472
     12          1           0        0.944268    3.195822    0.135442
     13          6           0        1.870346   -1.276825    0.682807
     14          1           0        1.734806   -2.333029    0.459131
     15          1           0        2.935521   -1.097213    0.840281
     16          1           0        1.352063   -1.050336    1.611926
 ---------------------------------------------------------------------

 SCF Done:  E(UB2PLYPD3) =  -345.576499014     A.U. after    1 cycles
 E2(B2PLYPD3) =    -0.4349112041D+00 E(B2PLYPD3) =    -0.34601141021854D+03
 E2(B2PLYPD3) =    -0.4349112041D+00 E(B2PLYPD3) =    -0.34601141021854D+03

 The electronic state is 2-A.
 Alpha  occ. eigenvalues --  -19.79137 -19.78847 -10.66128 -10.65928 -10.63085
 Alpha  occ. eigenvalues --  -10.62637 -10.62430  -1.28278  -1.01816  -0.93711
 Alpha  occ. eigenvalues --   -0.85810  -0.77768  -0.75836  -0.63048  -0.61043
 Alpha  occ. eigenvalues --   -0.56813  -0.55657  -0.54772  -0.51998  -0.49341
 Alpha  occ. eigenvalues --   -0.48058  -0.45279  -0.44270  -0.39826  -0.36632
 Alpha  occ. eigenvalues --   -0.35547  -0.33459  -0.28566
 Alpha virt. eigenvalues --    0.06876   0.08928   0.09718   0.10523   0.11267
 Alpha virt. eigenvalues --    0.12186   0.13481   0.15378   0.15398   0.15781
 Alpha virt. eigenvalues --    0.19188   0.20320   0.23426   0.24799   0.25899

  Beta  occ. eigenvalues --  -19.78845 -19.77163 -10.65943 -10.65082 -10.63447
  Beta  occ. eigenvalues --  -10.62486 -10.62103  -1.26158  -0.98760  -0.92367
  Beta  occ. eigenvalues --   -0.84909  -0.77272  -0.74455  -0.61897  -0.58133
  Beta  occ. eigenvalues --   -0.56093  -0.54430  -0.54360  -0.50369  -0.48593
  Beta  occ. eigenvalues --   -0.45664  -0.44978  -0.43414  -0.36381  -0.35317
  Beta  occ. eigenvalues --   -0.33217  -0.31364
  Beta virt. eigenvalues --   -0.06336   0.07051   0.08925   0.10362   0.11230
  Beta virt. eigenvalues --    0.11386   0.12302   0.13940   0.15487   0.15691
  Beta virt. eigenvalues --    0.16068   0.19789   0.20536   0.23923   0.25090

 Mulliken charges and spin densities:
               1          2
     1  C   -0.182417   0.492015
     2  H    0.140236  -0.012012
     3  C   -0.065389  -0.007811
     4  H    0.075653   0.004781
     5  H    0.097925  -0.000968
     6  H    0.094577   0.001658
     7  O   -0.170127   0.056421
     8  O   -0.221484   0.441869
     9  H    0.210887  -0.083095
    10  C   -0.009701  -0.210714
    11  C   -0.191359   0.320644
    12  H    0.169532  -0.010424
    13  C   -0.277923  -0.024942
    14  H    0.110687   0.002637
    15  H    0.110484   0.026000
    16  H    0.108419   0.003940
 Sum of Mulliken charges =   0.00000   1.00000

 Dipole moment (field-independent basis, Debye):
    X=              1.2212    Y=              0.5676    Z=              1.9314  Tot=              2.3546
 Quadrupole moment (field-independent basis, Debye-Ang):
   XX=            -42.1410   YY=            -39.2263   ZZ=            -43.9634
   XY=             -3.5460   XZ=             -4.4869   YZ=              0.6680

  Exact polarizability: 104.481   4.106  89.399  -1.902   3.470  55.775
 Approx polarizability:  91.495   0.518 107.388   0.738   8.668  65.152

 ******    1 imaginary frequencies (negative Signs) ******

                      1                      2                      3
                      A                      A                      A
 Frequencies --  -1939.0385                44.2659                72.1726
 Red. masses --      1.1251                 3.6298                 4.4427
 Frc consts  --      2.4925                 0.0042                 0.0136
 IR Inten    --   2459.9198                 2.3189                 0.0015

                      4                      5                      6
                      A                      A                      A
 Frequencies --    103.1240               164.6860               178.1583
 Red. masses --      2.7399                 2.4736                 1.4561
 Frc consts  --      0.0172                 0.0395                 0.0272
 IR Inten    --      2.9409                 4.9118                 0.9006

                      7                      8                      9
                      A                      A                      A
 Frequencies --    186.4555               208.7230               265.3406
 Red. masses --      1.1619                 2.7251                 2.8400
 Frc consts  --      0.0238                 0.0699                 0.1178
 IR Inten    --      0.6655                 1.0126                 0.8808

                     10                     11                     12
                      A                      A                      A
 Frequencies --    452.2299               474.7041               514.6480
 Red. masses --      3.7261                 4.7568                 3.5547
 Frc consts  --      0.4490                 0.6316                 0.5547
 IR Inten    --      1.8653                 4.0078                 9.0376

                     13                     14                     15
                      A                      A                      A
 Frequencies --    558.3521               624.8898               651.0053
 Red. masses --      3.4243                 1.2578                 1.2374
 Frc consts  --      0.6290                 0.2894                 0.3090
 IR Inten    --      5.8072                42.3605                43.8350

                     16                     17                     18
                      A                      A                      A
 Frequencies --    814.7328               878.4563               934.1059
 Red. masses --      1.1794                 2.5438                 4.4418
 Frc consts  --      0.4612                 1.1566                 2.2835
 IR Inten    --     11.6792                 1.2337                18.0735

                     19                     20                     21
                      A                      A                      A
 Frequencies --   1059.6175              1073.4508              1107.3157
 Red. masses --      8.0280                 1.9161                 1.6096
 Frc consts  --      5.3108                 1.3008                 1.1628
 IR Inten    --     48.4341                11.0207                 6.6435

                     22                     23                     24
                      A                      A                      A
 Frequencies --   1130.5108              1168.1406              1179.4702
 Red. masses --      1.9100                 1.2130                 1.2112
 Frc consts  --      1.4382                 0.9752                 0.9928
 IR Inten    --      8.1043                 5.6045                 8.4794

                     25                     26                     27
                      A                      A                      A
 Frequencies --   1215.4226              1350.5391              1416.4374
 Red. masses --      1.5631                 1.4285                 1.2081
 Frc consts  --      1.3605                 1.5352                 1.4281
 IR Inten    --      2.5440                 9.5583                 4.0492

                     28                     29                     30
                      A                      A                      A
 Frequencies --   1456.7534              1466.2804              1484.8491
 Red. masses --      1.1464                 1.1054                 1.0528
 Frc consts  --      1.4333                 1.4003                 1.3677
 IR Inten    --      5.0906                 2.6617                 7.4755

                     31                     32                     33
                      A                      A                      A
 Frequencies --   1500.0232              1504.7961              1511.1806
 Red. masses --      1.0457                 1.0511                 1.0484
 Frc consts  --      1.3863                 1.4023                 1.4106
 IR Inten    --      4.2987                 5.8553                 7.4721

                     34                     35                     36
                      A                      A                      A
 Frequencies --   2158.9990              3044.8068              3048.2400
 Red. masses --      6.1748                 1.0392                 1.0282
 Frc consts  --     16.9582                 5.6763                 5.6288
 IR Inten    --      3.7990                20.2053                37.4127

                     37                     38                     39
                      A                      A                      A
 Frequencies --   3108.8727              3114.7848              3128.8829
 Red. masses --      1.0874                 1.0918                 1.1071
 Frc consts  --      6.1925                 6.2411                 6.3857
 IR Inten    --      5.2576                 9.6928                30.3613

                     40                     41                     42
                      A                      A                      A
 Frequencies --   3143.4761              3151.8729              3487.8723
 Red. masses --      1.1021                 1.1050                 1.1521
 Frc consts  --      6.4163                 6.4678                 8.2579
 IR Inten    --     18.4753                12.0301                61.1538

 - Thermochemistry -
 -------------------
 Temperature   298.150 Kelvin.  Pressure   1.00000 Atm.
 Atom     1 has atomic number  6 and mass  12.00000

 Molecular mass:   101.06025 amu.
 Principal axes and moments of inertia in atomic units:
                           1         2         3
     Eigenvalues --   604.149171039.236871356.99653
           X            0.99729  -0.07071  -0.02015
           Y            0.07051   0.99745  -0.01059
           Z            0.02084   0.00914   0.99974
 This molecule is an asymmetric top.
 Rotational symmetry number  1.
 Warning -- assumption of classical behavior for rotation
           may cause significant error
 Rotational temperatures (Kelvin)      0.14337     0.08334     0.06383
 Rotational constants (GHZ):           2.98724     1.73660     1.32995
    1 imaginary frequencies ignored.
 Zero-point vibrational energy     323821.0 (Joules/Mol)
                                   77.39508 (Kcal/Mol)
 Warning -- explicit consideration of  12 degrees of freedom as
           vibrations may cause significant error
 Vibrational temperatures:     63.69   103.84   148.37   236.95   256.33
          (Kelvin)            268.27   300.31   381.77   650.66   682.99
                              740.46   803.34   899.08   936.65  1172.22
                             1263.90  1343.97  1524.55  1544.46  1593.18
                             1626.55  1680.69  1696.99  1748.72  1943.12
                             2037.94  2095.94  2109.65  2136.37  2158.20
                             2165.07  2174.25  3106.32  4380.80  4385.74
                             4472.97  4481.48  4501.76  4522.76  4534.84
                             5018.27

 Zero-point correction=                           0.123337 (Hartree/Particle)
 Thermal correction to Energy=                    0.132911
 Thermal correction to Enthalpy=                  0.133855
 Thermal correction to Gibbs Free Energy=         0.087716
 Sum of electronic and zero-point Energies=           -345.888073
 Sum of electronic and thermal Energies=              -345.878499
 Sum of electronic and thermal Enthalpies=            -345.877555
 Sum of electronic and thermal Free Energies=         -345.923695

                     E (Thermal)             CV                S
                      KCal/Mol        Cal/Mol-Kelvin    Cal/Mol-Kelvin
 Total                   83.403             32.043             97.109
 Electronic               0.000              0.000              1.377
 Translational            0.889              2.981             39.749
 Rotational               0.889              2.981             28.234
 Vibrational             81.626             26.082             27.748
 Vibration     1          0.595              1.980              5.058
 Vibration     2          0.598              1.967              4.093
 Vibration     3          0.605              1.947              3.394
 Vibration     4          0.623              1.886              2.495
 Vibration     5          0.629              1.869              2.348
 Vibration     6          0.632              1.858              2.263
 Vibration     7          0.642              1.827              2.055
 Vibration     8          0.671              1.737              1.626
 Vibration     9          0.811              1.356              0.789
 Vibration    10          0.831              1.306              0.724
 Vibration    11          0.870              1.218              0.622
 Vibration    12          0.914              1.121              0.527

 Optimization completed.
    -- Stationary point found.

 1\1\GINC-N143\Freq\UB2PLYPD3-FC\CC-pVTZ\C5H9O2(2)\ROOT\24-Jun-2019\0\\
 #N Geom=AllCheck Guess=TCheck SCRF=Check GenChk UB2PLYPD3(FC)/CC-pVTZ
 Freq\\Title Card Required\\0,2\C,-1.0865055498,0.4241227098,-1.0112261
 767\H,-1.6527468207,0.0553071887,-1.8637537933\C,2.0785440581,-0.64415
 55417,0.6649608614\H,1.4507821969,0.1721813277,1.0196836939\H,2.272245
 044,-1.3414604124,1.476730094\H,3.0134142298,-0.2568314321,0.264447756
 3\O,1.3955166431,-1.4063705327,-0.3266862706\O,1.191867029,-0.59237731
 15,-1.4380298036\H,0.0982104619,-0.1213502553,-1.263879933\C,-1.447482

 Normal termination of Gaussian 16 at Mon Jun 24 13:50:08 2019.
