 Gaussian 16, Revision B.01,
 Gaussian 16:  ES64L-G16RevB.01 20-Dec-2017

 ----------------------------------------------------------------------
 # opt=(calcfc,ts,noeigentest,maxcyc=500,modredundant) uB2PLYPD3/cc-pvt
 z scf=maxcyc=500 nosymm
 ----------------------------------------------------------------------

 -------------------
 Title Card Required
 -------------------
 Symbolic Z-matrix:
 Charge =  0 Multiplicity = 2

 SCF Done:  E(UB2PLYPD3) =  -345.584063947     A.U. after   25 cycles
 E2(B2PLYPD3) =    -0.4285819310D+00 E(B2PLYPD3) =    -0.34601264587798D+03
 E2(B2PLYPD3) =    -0.4285819310D+00 E(B2PLYPD3) =    -0.34601264587798D+03

  Exact polarizability: 120.158   8.310  81.740   0.831   8.493  50.536
 Approx polarizability:  99.964  17.160  99.288   1.343  12.459  62.417

 Optimization completed.
    -- Stationary point found.
 SCF Done:  E(UB2PLYPD3) =  -345.583723757     A.U. after   20 cycles
 E2(B2PLYPD3) =    -0.4287233976D+00 E(B2PLYPD3) =    -0.34601244715413D+03
 SCF Done:  E(UB2PLYPD3) =  -345.583965560     A.U. after   17 cycles
 E2(B2PLYPD3) =    -0.4285559387D+00 E(B2PLYPD3) =    -0.34601252149883D+03
 SCF Done:  E(UB2PLYPD3) =  -345.583926643     A.U. after   11 cycles
 E2(B2PLYPD3) =    -0.4285985297D+00 E(B2PLYPD3) =    -0.34601252517269D+03
 SCF Done:  E(UB2PLYPD3) =  -345.583924537     A.U. after    9 cycles
 E2(B2PLYPD3) =    -0.4286008168D+00 E(B2PLYPD3) =    -0.34601252535333D+03
 Optimization completed.
 SCF Done:  E(UB2PLYPD3) =  -345.583392989     A.U. after   15 cycles
 E2(B2PLYPD3) =    -0.4286880835D+00 E(B2PLYPD3) =    -0.34601208107238D+03
 SCF Done:  E(UB2PLYPD3) =  -345.583647178     A.U. after   18 cycles
 E2(B2PLYPD3) =    -0.4285219241D+00 E(B2PLYPD3) =    -0.34601216910234D+03
 SCF Done:  E(UB2PLYPD3) =  -345.583606658     A.U. after   12 cycles
 E2(B2PLYPD3) =    -0.4285683696D+00 E(B2PLYPD3) =    -0.34601217502725D+03
 SCF Done:  E(UB2PLYPD3) =  -345.583603495     A.U. after   10 cycles
 E2(B2PLYPD3) =    -0.4285716755D+00 E(B2PLYPD3) =    -0.34601217517014D+03
 SCF Done:  E(UB2PLYPD3) =  -345.582945168     A.U. after   19 cycles
 E2(B2PLYPD3) =    -0.4285978807D+00 E(B2PLYPD3) =    -0.34601154304841D+03
 E2(B2PLYPD3) =    -0.4284452018D+00 E(B2PLYPD3) =    -0.34601163185680D+03
 E2(B2PLYPD3) =    -0.4284851932D+00 E(B2PLYPD3) =    -0.34601163973698D+03
 E2(B2PLYPD3) =    -0.4284909103D+00 E(B2PLYPD3) =    -0.34601164007683D+03
 E2(B2PLYPD3) =    -0.4284634075D+00 E(B2PLYPD3) =    -0.34601091797461D+03
 E2(B2PLYPD3) =    -0.4283444964D+00 E(B2PLYPD3) =    -0.34601099747521D+03
 E2(B2PLYPD3) =    -0.4283559551D+00 E(B2PLYPD3) =    -0.34601100414684D+03
 E2(B2PLYPD3) =    -0.4283561373D+00 E(B2PLYPD3) =    -0.34601100490825D+03
 E2(B2PLYPD3) =    -0.4283513042D+00 E(B2PLYPD3) =    -0.34601100498304D+03
 E2(B2PLYPD3) =    -0.4282924364D+00 E(B2PLYPD3) =    -0.34601031222401D+03
 E2(B2PLYPD3) =    -0.4278142336D+00 E(B2PLYPD3) =    -0.34601094628440D+03
 E2(B2PLYPD3) =    -0.4279065507D+00 E(B2PLYPD3) =    -0.34601130967847D+03
 E2(B2PLYPD3) =    -0.4280180418D+00 E(B2PLYPD3) =    -0.34601133986606D+03
 E2(B2PLYPD3) =    -0.4280102980D+00 E(B2PLYPD3) =    -0.34601134031888D+03
 E2(B2PLYPD3) =    -0.4281450673D+00 E(B2PLYPD3) =    -0.34601177573121D+03
 E2(B2PLYPD3) =    -0.4282364772D+00 E(B2PLYPD3) =    -0.34601179533947D+03
 E2(B2PLYPD3) =    -0.4282143955D+00 E(B2PLYPD3) =    -0.34601179637937D+03
 E2(B2PLYPD3) =    -0.4282175768D+00 E(B2PLYPD3) =    -0.34601179646021D+03
 E2(B2PLYPD3) =    -0.4283873735D+00 E(B2PLYPD3) =    -0.34601220835024D+03
 E2(B2PLYPD3) =    -0.4283854131D+00 E(B2PLYPD3) =    -0.34601222418920D+03
 SCF Done:  E(UB2PLYPD3) =  -345.583833763     A.U. after   11 cycles
 E2(B2PLYPD3) =    -0.4283912051D+00 E(B2PLYPD3) =    -0.34601222496803D+03
 SCF Done:  E(UB2PLYPD3) =  -345.583836570     A.U. after    9 cycles
 E2(B2PLYPD3) =    -0.4283884273D+00 E(B2PLYPD3) =    -0.34601222499704D+03
 SCF Done:  E(UB2PLYPD3) =  -345.583926317     A.U. after   19 cycles
 E2(B2PLYPD3) =    -0.4285781890D+00 E(B2PLYPD3) =    -0.34601250450619D+03
 SCF Done:  E(UB2PLYPD3) =  -345.584068709     A.U. after   13 cycles
 E2(B2PLYPD3) =    -0.4284614420D+00 E(B2PLYPD3) =    -0.34601253015093D+03
 SCF Done:  E(UB2PLYPD3) =  -345.584012043     A.U. after   11 cycles
 E2(B2PLYPD3) =    -0.4285203871D+00 E(B2PLYPD3) =    -0.34601253243021D+03
 SCF Done:  E(UB2PLYPD3) =  -345.584023233     A.U. after   10 cycles
 E2(B2PLYPD3) =    -0.4285097629D+00 E(B2PLYPD3) =    -0.34601253299589D+03
    -- Stationary point found.
 SCF Done:  E(UB2PLYPD3) =  -345.583902397     A.U. after   19 cycles
 E2(B2PLYPD3) =    -0.4286907407D+00 E(B2PLYPD3) =    -0.34601259313788D+03
 SCF Done:  E(UB2PLYPD3) =  -345.584111346     A.U. after   14 cycles
 E2(B2PLYPD3) =    -0.4285310144D+00 E(B2PLYPD3) =    -0.34601264236075D+03
 SCF Done:  E(UB2PLYPD3) =  -345.584064083     A.U. after   12 cycles
 E2(B2PLYPD3) =    -0.4285818021D+00 E(B2PLYPD3) =    -0.34601264588558D+03
 SCF Done:  E(UB2PLYPD3) =  -345.584066560     A.U. after    9 cycles
 E2(B2PLYPD3) =    -0.4285796688D+00 E(B2PLYPD3) =    -0.34601264622852D+03
 Optimization completed.
    -- Stationary point found.

                          Input orientation:
 ---------------------------------------------------------------------
 Center     Atomic      Atomic             Coordinates (Angstroms)
 Number     Number       Type             X           Y           Z
 ---------------------------------------------------------------------
      1          6           0       -0.521427   -1.479745   -0.466046
      2          6           0       -1.155465   -0.509820    0.155839
      3          1           0       -0.780287   -2.137442   -1.282465
      4          1           0       -0.649463    0.002367    0.970822
      5          6           0        2.451360    0.478078    0.307286
      6          1           0        1.819822    0.624868   -0.570095
      7          1           0        2.539177    1.409267    0.863536
      8          1           0        3.435825    0.126780    0.003741
      9          8           0        1.851180   -0.438763    1.211859
     10          8           0        1.794834   -1.697728    0.562416
     11          1           0        0.815937   -1.689217    0.086910
     12          6           0       -2.510459   -0.057835   -0.166709
     13          6           0       -3.121096    0.928685    0.487787
     14          1           0       -3.016134   -0.566203   -0.977766
     15          1           0       -4.121548    1.240601    0.228814
     16          1           0       -2.633848    1.447380    1.301954
 ---------------------------------------------------------------------

 Alpha  occ. eigenvalues --  -19.78653 -19.78290 -10.65956 -10.65439 -10.64028
 Alpha  occ. eigenvalues --  -10.63934 -10.62496  -1.27260  -1.02723  -0.94708
 Alpha  occ. eigenvalues --   -0.86863  -0.77781  -0.71251  -0.65676  -0.61854
 Alpha  occ. eigenvalues --   -0.56763  -0.55540  -0.54377  -0.52964  -0.49591
 Alpha  occ. eigenvalues --   -0.48633  -0.44312  -0.43858  -0.39833  -0.37704
 Alpha  occ. eigenvalues --   -0.36896  -0.31335  -0.29849
 Alpha virt. eigenvalues --    0.01082   0.08852   0.09184   0.10158   0.11152
 Alpha virt. eigenvalues --    0.12330   0.13032   0.14696   0.15664   0.16484
 Alpha virt. eigenvalues --    0.17702   0.20338   0.23203   0.26099   0.28572

  Beta  occ. eigenvalues --  -19.78552 -19.77065 -10.65961 -10.64257 -10.63691
  Beta  occ. eigenvalues --  -10.63663 -10.62700  -1.25789  -1.00509  -0.93875
  Beta  occ. eigenvalues --   -0.85338  -0.77473  -0.69141  -0.64810  -0.58804
  Beta  occ. eigenvalues --   -0.56062  -0.54712  -0.54111  -0.51826  -0.48083
  Beta  occ. eigenvalues --   -0.47155  -0.43492  -0.43266  -0.39635  -0.36010
  Beta  occ. eigenvalues --   -0.34283  -0.29015
  Beta virt. eigenvalues --   -0.05577   0.01890   0.08891   0.09474   0.10271
  Beta virt. eigenvalues --    0.11157   0.12966   0.13272   0.14834   0.15809
  Beta virt. eigenvalues --    0.16537   0.18035   0.20748   0.23536   0.26768

 Mulliken charges and spin densities:
               1          2
     1  C   -0.277417   0.871474
     2  C   -0.079640  -0.194050
     3  H    0.156642   0.022793
     4  H    0.167942   0.027286
     5  C   -0.068136  -0.001967
     6  H    0.075632  -0.000383
     7  H    0.095279  -0.000529
     8  H    0.099881   0.001417
     9  O   -0.194839   0.017334
    10  O   -0.228978   0.307107
    11  H    0.228759  -0.071098
    12  C   -0.065497   0.144343
    13  C   -0.301250  -0.132485
    14  H    0.133009  -0.005297
    15  H    0.131515   0.008561
    16  H    0.127101   0.005493
 Sum of Mulliken charges =  -0.00000   1.00000

 Dipole moment (field-independent basis, Debye):
    X=             -1.6127    Y=              1.6755    Z=             -1.7188  Tot=              2.8918
 Quadrupole moment (field-independent basis, Debye-Ang):
   XX=            -40.7121   YY=            -44.0715   ZZ=            -45.1065
   XY=              4.2543   XZ=             -1.3089   YZ=              5.5053

 1\1\GINC-N138\Scan\UB2PLYPD3-FC\CC-pVTZ\C5H9O2(2)\ROOT\13-Jun-2019\0\\
 # opt=(calcfc,ts,noeigentest,maxcyc=500,modredundant) uB2PLYPD3/cc-pvt
 z scf=maxcyc=500 nosymm\\Title Card Required\\0,2\C,-0.5214266522,-1.4
 797453053,-0.4660464328\C,-1.1554651562,-0.5098195968,0.155838841\H,-0
 .7802869804,-2.1374417551,-1.282465104\H,-0.6494629456,0.0023673511,0.
 9708216717\C,2.4513601612,0.4780782641,0.3072861996\H,1.819821965,0.62
 48675375,-0.5700948018\H,2.5391766655,1.4092666245,0.8635363598\H,3.43
 58247535,0.1267799894,0.0037409001\O,1.8511797262,-0.4387632467,1.2118

 Normal termination of Gaussian 16 at Thu Jun 13 20:05:49 2019.
