 Gaussian 16, Revision B.01,
 Gaussian 16:  ES64L-G16RevB.01 20-Dec-2017

 ----------------------------------------------------------------------
 # opt=(calcfc,ts,noeigentest,maxcyc=500) freq=noraman uB2PLYPD3/cc-pvt
 z
 ----------------------------------------------------------------------

 -------------------
 Title Card Required
 -------------------
 Symbolic Z-matrix:
 Charge =  0 Multiplicity = 2

 SCF Done:  E(UB2PLYPD3) =  -346.806892655     A.U. after   22 cycles
 E2(B2PLYPD3) =    -0.4401334435D+00 E(B2PLYPD3) =    -0.34724702609849D+03
 E2(B2PLYPD3) =    -0.4401334435D+00 E(B2PLYPD3) =    -0.34724702609849D+03
 SCF Done:  E(UB2PLYPD3) =  -346.806897924     A.U. after   13 cycles
 E2(B2PLYPD3) =    -0.4401441006D+00 E(B2PLYPD3) =    -0.34724704202504D+03
 SCF Done:  E(UB2PLYPD3) =  -346.806902541     A.U. after   10 cycles
 E2(B2PLYPD3) =    -0.4401396255D+00 E(B2PLYPD3) =    -0.34724704216636D+03
 Optimization completed.
    -- Stationary point found.

 1\1\GINC-N144\FTS\UB2PLYPD3-FC\CC-pVTZ\C5H11O2(2)\ROOT\24-Jun-2019\0\\
 # opt=(calcfc,ts,noeigentest,maxcyc=500) freq=noraman uB2PLYPD3/cc-pvt
 z\\Title Card Required\\0,2\C,-1.1950487847,-0.44350462,-0.2030280906\
 C,-1.7699431549,0.7336139214,-0.3292472826\C,2.3510361424,-0.084985566
 9,0.3061163535\H,1.5650156486,0.5226303954,0.7586159228\H,3.0091082596
 ,-0.4768813559,1.0792316005\H,2.9195712779,0.5133418227,-0.404191518\O
 ,1.7993229267,-1.2280673812,-0.3288895644\O,0.9994661191,-0.7725189005
 ,-1.4052894157\H,-0.0116543909,-0.6184398243,-0.926794168\H,-2.6970948

 Normal termination of Gaussian 16 at Mon Jun 24 12:43:24 2019.

 ----------------------------------------------------------------------
 #N Geom=AllCheck Guess=TCheck SCRF=Check GenChk UB2PLYPD3(FC)/CC-pVTZ
 Freq
 ----------------------------------------------------------------------

 Structure from the checkpoint file:  "/localscratch/353444/Gau-9595.chk"
 -------------------
 Title Card Required
 -------------------
 Charge =  0 Multiplicity = 2

                         Standard orientation:
 ---------------------------------------------------------------------
 Center     Atomic      Atomic             Coordinates (Angstroms)
 Number     Number       Type             X           Y           Z
 ---------------------------------------------------------------------
      1          6           0       -1.005983    0.660025    0.047709
      2          6           0       -1.962442   -0.192537   -0.252902
      3          6           0        2.218595   -0.673086   -0.839644
      4          1           0        1.303090   -0.739609   -1.430580
      5          1           0        3.023434   -0.262758   -1.446450
      6          1           0        2.492638   -1.659361   -0.468260
      7          8           0        2.057852    0.240790    0.234251
      8          8           0        1.077468   -0.294142    1.105243
      9          1           0        0.111474    0.113635    0.686154
     10          1           0       -2.848867    0.205360   -0.750111
     11          6           0       -0.799666    2.110631   -0.151309
     12          1           0       -1.626475    2.533229   -0.728829
     13          1           0       -0.739250    2.633449    0.802802
     14          1           0        0.130323    2.302068   -0.686198
     15          6           0       -1.956753   -1.665063    0.030413
     16          1           0       -1.026632   -1.968326    0.504292
     17          1           0       -2.784745   -1.935325    0.686692
     18          1           0       -2.080069   -2.235360   -0.891068
 ---------------------------------------------------------------------

 SCF Done:  E(UB2PLYPD3) =  -346.806902541     A.U. after    1 cycles
 E2(B2PLYPD3) =    -0.4401396165D+00 E(B2PLYPD3) =    -0.34724704215731D+03
 E2(B2PLYPD3) =    -0.4401396165D+00 E(B2PLYPD3) =    -0.34724704215731D+03

 The electronic state is 2-A.
 Alpha  occ. eigenvalues --  -19.78280 -19.78131 -10.65778 -10.64558 -10.62732
 Alpha  occ. eigenvalues --  -10.62458 -10.61463  -1.26893  -1.02165  -0.93636
 Alpha  occ. eigenvalues --   -0.85470  -0.77585  -0.76277  -0.65229  -0.58429
 Alpha  occ. eigenvalues --   -0.55446  -0.54233  -0.53299  -0.51836  -0.49872
 Alpha  occ. eigenvalues --   -0.48355  -0.47946  -0.45009  -0.44512  -0.43689
 Alpha  occ. eigenvalues --   -0.36906  -0.36158  -0.31021  -0.29783
 Alpha virt. eigenvalues --    0.06938   0.07831   0.09333   0.10144   0.12248
 Alpha virt. eigenvalues --    0.13221   0.14593   0.15146   0.16180   0.16331
 Alpha virt. eigenvalues --    0.17089   0.18838   0.20077   0.22296   0.25091

  Beta  occ. eigenvalues --  -19.78182 -19.76686 -10.65783 -10.63089 -10.62908
  Beta  occ. eigenvalues --  -10.62430 -10.61392  -1.25230  -0.99587  -0.91959
  Beta  occ. eigenvalues --   -0.84943  -0.77180  -0.75594  -0.61458  -0.56496
  Beta  occ. eigenvalues --   -0.54440  -0.53900  -0.52525  -0.50255  -0.49551
  Beta  occ. eigenvalues --   -0.47987  -0.45466  -0.44453  -0.43987  -0.42853
  Beta  occ. eigenvalues --   -0.35496  -0.33554  -0.30355
  Beta virt. eigenvalues --   -0.04737   0.07699   0.08193   0.09421   0.10288
  Beta virt. eigenvalues --    0.12668   0.13510   0.14658   0.15269   0.16253
  Beta virt. eigenvalues --    0.16515   0.17336   0.19034   0.20454   0.22581

 Mulliken charges and spin densities:
               1          2
     1  C   -0.101162   0.701826
     2  C   -0.136689  -0.131460
     3  C   -0.062413  -0.002412
     4  H    0.071844  -0.000233
     5  H    0.097624  -0.000838
     6  H    0.088732   0.002262
     7  O   -0.194292   0.017306
     8  O   -0.226522   0.365218
     9  H    0.221717  -0.069791
    10  H    0.133715   0.061147
    11  C   -0.263425  -0.008170
    12  H    0.098259   0.043641
    13  H    0.115471   0.002891
    14  H    0.116022   0.004845
    15  C   -0.273853   0.021235
    16  H    0.111606   0.001113
    17  H    0.105446  -0.004287
    18  H    0.097919  -0.004294
 Sum of Mulliken charges =  -0.00000   1.00000

 Dipole moment (field-independent basis, Debye):
    X=             -1.6319    Y=             -0.1049    Z=             -2.2401  Tot=              2.7735
 Quadrupole moment (field-independent basis, Debye-Ang):
   XX=            -42.8025   YY=            -41.6470   ZZ=            -46.2014
   XY=             -1.7036   XZ=             -3.4460   YZ=              0.4610

  Exact polarizability: 106.560  -0.083  82.813   3.709  -1.115  60.493
 Approx polarizability:  98.818   5.675  84.475   5.084  -1.134  73.714

 ******    1 imaginary frequencies (negative Signs) ******

                      1                      2                      3
                      A                      A                      A
 Frequencies --  -1644.1128                29.7225                67.6159
 Red. masses --      1.1354                 3.4161                 2.7095
 Frc consts  --      1.8083                 0.0018                 0.0073
 IR Inten    --   1388.5461                 1.5536                 1.7591

                      4                      5                      6
                      A                      A                      A
 Frequencies --     85.2772               132.5715               160.6874
 Red. masses --      3.1866                 1.3987                 1.9335
 Frc consts  --      0.0137                 0.0145                 0.0294
 IR Inten    --      2.3732                 1.4481                 1.7122

                      7                      8                      9
                      A                      A                      A
 Frequencies --    176.1966               211.4326               220.9909
 Red. masses --      1.1141                 1.9998                 1.5031
 Frc consts  --      0.0204                 0.0527                 0.0433
 IR Inten    --      0.3686                 2.4187                 1.6239

                     10                     11                     12
                      A                      A                      A
 Frequencies --    269.7706               338.8858               445.6852
 Red. masses --      1.8842                 3.1499                 3.5036
 Frc consts  --      0.0808                 0.2131                 0.4100
 IR Inten    --      0.8220                 5.7444                 3.8509

                     13                     14                     15
                      A                      A                      A
 Frequencies --    468.9592               603.9726               768.4842
 Red. masses --      3.6208                 4.2678                 1.1991
 Frc consts  --      0.4692                 0.9173                 0.4172
 IR Inten    --      3.7170                 5.4971                10.2864

                     16                     17                     18
                      A                      A                      A
 Frequencies --    883.6828               909.8550               945.3387
 Red. masses --      1.9156                 4.1192                 1.0833
 Frc consts  --      0.8814                 2.0091                 0.5704
 IR Inten    --      2.0767                 8.1259                32.6134

                     19                     20                     21
                      A                      A                      A
 Frequencies --   1021.6290              1053.0832              1065.7877
 Red. masses --      1.2408                 7.0377                 1.4608
 Frc consts  --      0.7630                 4.5984                 0.9776
 IR Inten    --      7.3379                29.4016                 0.3241

                     22                     23                     24
                      A                      A                      A
 Frequencies --   1079.1435              1094.4414              1170.7507
 Red. masses --      1.4273                 3.8151                 2.2773
 Frc consts  --      0.9793                 2.6924                 1.8391
 IR Inten    --      0.6586                 3.4295                 6.6463

                     25                     26                     27
                      A                      A                      A
 Frequencies --   1179.5612              1217.8485              1308.0077
 Red. masses --      1.2732                 1.5868                 1.3034
 Frc consts  --      1.0437                 1.3866                 1.3138
 IR Inten    --      1.6441                 2.9332                16.3118

                     28                     29                     30
                      A                      A                      A
 Frequencies --   1405.8202              1419.9078              1431.5565
 Red. masses --      1.2414                 1.1992                 1.1013
 Frc consts  --      1.4455                 1.4245                 1.3297
 IR Inten    --      1.5791                 3.5365                 3.1753

                     31                     32                     33
                      A                      A                      A
 Frequencies --   1458.0604              1467.0855              1480.9497
 Red. masses --      1.1450                 1.0431                 1.0495
 Frc consts  --      1.4341                 1.3227                 1.3562
 IR Inten    --      2.9899                10.4103                 6.8103

                     34                     35                     36
                      A                      A                      A
 Frequencies --   1496.0274              1501.2568              1506.5628
 Red. masses --      1.0535                 1.0443                 1.0474
 Frc consts  --      1.3892                 1.3868                 1.4006
 IR Inten    --      2.6299                 6.8241                 9.3043

                     37                     38                     39
                      A                      A                      A
 Frequencies --   1520.1046              1764.4016              3024.8209
 Red. masses --      1.0509                 7.9084                 1.0393
 Frc consts  --      1.4308                14.5055                 5.6026
 IR Inten    --      9.0616                 2.8842                17.6326

                     40                     41                     42
                      A                      A                      A
 Frequencies --   3032.0161              3046.9267              3068.8289
 Red. masses --      1.0313                 1.0370                 1.0833
 Frc consts  --      5.5859                 5.6719                 6.0110
 IR Inten    --     29.2200                30.7371                19.3851

                     43                     44                     45
                      A                      A                      A
 Frequencies --   3099.5995              3100.0442              3109.0630
 Red. masses --      1.1000                 1.0939                 1.1031
 Frc consts  --      6.2267                 6.1939                 6.2825
 IR Inten    --     17.4541                 8.2774                43.5522

                     46                     47                     48
                      A                      A                      A
 Frequencies --   3113.5104              3142.1027              3145.0007
 Red. masses --      1.1006                 1.1045                 1.1010
 Frc consts  --      6.2862                 6.4249                 6.4161
 IR Inten    --      6.2973                15.7723                 9.7187

 - Thermochemistry -
 -------------------
 Temperature   298.150 Kelvin.  Pressure   1.00000 Atm.
 Atom     1 has atomic number  6 and mass  12.00000

 Molecular mass:   103.07590 amu.
 Principal axes and moments of inertia in atomic units:
                           1         2         3
     Eigenvalues --   619.411201205.200681550.72085
           X            0.99981  -0.00064  -0.01946
           Y            0.00075   0.99998   0.00548
           Z            0.01945  -0.00550   0.99980
 This molecule is an asymmetric top.
 Rotational symmetry number  1.
 Warning -- assumption of classical behavior for rotation
           may cause significant error
 Rotational temperatures (Kelvin)      0.13983     0.07187     0.05585
 Rotational constants (GHZ):           2.91364     1.49746     1.16381
    1 imaginary frequencies ignored.
 Zero-point vibrational energy     384258.6 (Joules/Mol)
                                   91.84002 (Kcal/Mol)
 Warning -- explicit consideration of  13 degrees of freedom as
           vibrations may cause significant error
 Vibrational temperatures:     42.76    97.28   122.69   190.74   231.19
          (Kelvin)            253.51   304.20   317.96   388.14   487.58
                              641.24   674.73   868.98  1105.68  1271.42
                             1309.08  1360.13  1469.90  1515.15  1533.43
                             1552.65  1574.66  1684.45  1697.13  1752.21
                             1881.93  2022.66  2042.93  2059.69  2097.82
                             2110.81  2130.76  2152.45  2159.97  2167.61
                             2187.09  2538.58  4352.04  4362.39  4383.85
                             4415.36  4459.63  4460.27  4473.25  4479.65
                             4520.78  4524.95

 Zero-point correction=                           0.146356 (Hartree/Particle)
 Thermal correction to Energy=                    0.156614
 Thermal correction to Enthalpy=                  0.157559
 Thermal correction to Gibbs Free Energy=         0.109350
 Sum of electronic and zero-point Energies=           -347.100686
 Sum of electronic and thermal Energies=              -347.090428
 Sum of electronic and thermal Enthalpies=            -347.089484
 Sum of electronic and thermal Free Energies=         -347.137692

                     E (Thermal)             CV                S
                      KCal/Mol        Cal/Mol-Kelvin    Cal/Mol-Kelvin
 Total                   98.277             33.608            101.463
 Electronic               0.000              0.000              1.377
 Translational            0.889              2.981             39.808
 Rotational               0.889              2.981             28.539
 Vibrational             96.500             27.646             31.738
 Vibration     1          0.594              1.984              5.848
 Vibration     2          0.598              1.970              4.222
 Vibration     3          0.601              1.959              3.766
 Vibration     4          0.613              1.921              2.908
 Vibration     5          0.622              1.891              2.542
 Vibration     6          0.628              1.872              2.368
 Vibration     7          0.643              1.823              2.031
 Vibration     8          0.648              1.809              1.951
 Vibration     9          0.674              1.729              1.598
 Vibration    10          0.719              1.598              1.217
 Vibration    11          0.805              1.370              0.809
 Vibration    12          0.826              1.319              0.740
 Vibration    13          0.962              1.023              0.443

 Optimization completed.
    -- Stationary point found.
 Normal termination of Gaussian 16 at Mon Jun 24 14:41:56 2019.
