 Gaussian 16, Revision B.01,
 Gaussian 16:  ES64L-G16RevB.01 20-Dec-2017

 ----------------------------------------------------------------------
 # opt=(calcfc,ts,noeigentest,maxcyc=500,modredundant) uB2PLYPD3/cc-pvt
 z scf=maxcyc=500 nosymm
 ----------------------------------------------------------------------

 -------------------
 Title Card Required
 -------------------
 Symbolic Z-matrix:
 Charge =  0 Multiplicity = 2

 SCF Done:  E(UB2PLYPD3) =  -346.818521974     A.U. after   20 cycles
 E2(B2PLYPD3) =    -0.4415315683D+00 E(B2PLYPD3) =    -0.34726005354214D+03
 E2(B2PLYPD3) =    -0.4415315683D+00 E(B2PLYPD3) =    -0.34726005354214D+03

  Exact polarizability: 117.400  -0.191  88.794  -3.610  -0.184  61.674
 Approx polarizability: 106.245   6.674  93.021  -6.625  -0.950  75.201

 Optimization completed.
    -- Stationary point found.
 SCF Done:  E(UB2PLYPD3) =  -346.818314276     A.U. after   16 cycles
 E2(B2PLYPD3) =    -0.4415433305D+00 E(B2PLYPD3) =    -0.34725985760685D+03
 SCF Done:  E(UB2PLYPD3) =  -346.818537673     A.U. after   14 cycles
 E2(B2PLYPD3) =    -0.4413930099D+00 E(B2PLYPD3) =    -0.34725993068256D+03
 SCF Done:  E(UB2PLYPD3) =  -346.818466315     A.U. after   12 cycles
 E2(B2PLYPD3) =    -0.4414706248D+00 E(B2PLYPD3) =    -0.34725993693959D+03
 SCF Done:  E(UB2PLYPD3) =  -346.818471552     A.U. after   11 cycles
 E2(B2PLYPD3) =    -0.4414656343D+00 E(B2PLYPD3) =    -0.34725993718675D+03
 SCF Done:  E(UB2PLYPD3) =  -346.818471517     A.U. after    6 cycles
 E2(B2PLYPD3) =    -0.4414658841D+00 E(B2PLYPD3) =    -0.34725993740100D+03
 Optimization completed.
 SCF Done:  E(UB2PLYPD3) =  -346.818117578     A.U. after   16 cycles
 E2(B2PLYPD3) =    -0.4413905777D+00 E(B2PLYPD3) =    -0.34725950815597D+03
 SCF Done:  E(UB2PLYPD3) =  -346.818364944     A.U. after   14 cycles
 E2(B2PLYPD3) =    -0.4412147497D+00 E(B2PLYPD3) =    -0.34725957969418D+03
 SCF Done:  E(UB2PLYPD3) =  -346.818301718     A.U. after   12 cycles
 E2(B2PLYPD3) =    -0.4412833869D+00 E(B2PLYPD3) =    -0.34725958510464D+03
 SCF Done:  E(UB2PLYPD3) =  -346.818303947     A.U. after   11 cycles
 E2(B2PLYPD3) =    -0.4412813517D+00 E(B2PLYPD3) =    -0.34725958529837D+03
 E2(B2PLYPD3) =    -0.4412805963D+00 E(B2PLYPD3) =    -0.34725958533439D+03
 E2(B2PLYPD3) =    -0.4411249423D+00 E(B2PLYPD3) =    -0.34725898963716D+03
 E2(B2PLYPD3) =    -0.4409288772D+00 E(B2PLYPD3) =    -0.34725904236878D+03
 E2(B2PLYPD3) =    -0.4409574281D+00 E(B2PLYPD3) =    -0.34725904414893D+03
 E2(B2PLYPD3) =    -0.4409593488D+00 E(B2PLYPD3) =    -0.34725904409333D+03
 E2(B2PLYPD3) =    -0.4407638816D+00 E(B2PLYPD3) =    -0.34725840217912D+03
 E2(B2PLYPD3) =    -0.4406100378D+00 E(B2PLYPD3) =    -0.34725843980269D+03
 E2(B2PLYPD3) =    -0.4405916280D+00 E(B2PLYPD3) =    -0.34725844164409D+03
 E2(B2PLYPD3) =    -0.4405883141D+00 E(B2PLYPD3) =    -0.34725844185143D+03
 E2(B2PLYPD3) =    -0.4413705256D+00 E(B2PLYPD3) =    -0.34725971370917D+03
 E2(B2PLYPD3) =    -0.4414983555D+00 E(B2PLYPD3) =    -0.34725965655782D+03
 E2(B2PLYPD3) =    -0.4414723368D+00 E(B2PLYPD3) =    -0.34725972042463D+03
 E2(B2PLYPD3) =    -0.4414534454D+00 E(B2PLYPD3) =    -0.34725972131379D+03
 E2(B2PLYPD3) =    -0.4414592283D+00 E(B2PLYPD3) =    -0.34725972136416D+03
 E2(B2PLYPD3) =    -0.4416211825D+00 E(B2PLYPD3) =    -0.34725990402656D+03
 E2(B2PLYPD3) =    -0.4414156224D+00 E(B2PLYPD3) =    -0.34725994950953D+03
 E2(B2PLYPD3) =    -0.4415128655D+00 E(B2PLYPD3) =    -0.34725995512606D+03
 E2(B2PLYPD3) =    -0.4415019280D+00 E(B2PLYPD3) =    -0.34725995785876D+03
 E2(B2PLYPD3) =    -0.4415041231D+00 E(B2PLYPD3) =    -0.34725995801824D+03
    -- Stationary point found.
 SCF Done:  E(UB2PLYPD3) =  -346.818386478     A.U. after   15 cycles
 E2(B2PLYPD3) =    -0.4416005414D+00 E(B2PLYPD3) =    -0.34725998701980D+03
 SCF Done:  E(UB2PLYPD3) =  -346.818586317     A.U. after   14 cycles
 E2(B2PLYPD3) =    -0.4414559686D+00 E(B2PLYPD3) =    -0.34726004228543D+03
 SCF Done:  E(UB2PLYPD3) =  -346.818528588     A.U. after   12 cycles
 E2(B2PLYPD3) =    -0.4415242582D+00 E(B2PLYPD3) =    -0.34726005284594D+03
 SCF Done:  E(UB2PLYPD3) =  -346.818530572     A.U. after   10 cycles
 E2(B2PLYPD3) =    -0.4415223075D+00 E(B2PLYPD3) =    -0.34726005287935D+03
 SCF Done:  E(UB2PLYPD3) =  -346.818524669     A.U. after   10 cycles
 E2(B2PLYPD3) =    -0.4415284838D+00 E(B2PLYPD3) =    -0.34726005315331D+03
 SCF Done:  E(UB2PLYPD3) =  -346.818188310     A.U. after   16 cycles
 E2(B2PLYPD3) =    -0.4411460434D+00 E(B2PLYPD3) =    -0.34725933435373D+03
 SCF Done:  E(UB2PLYPD3) =  -346.818458091     A.U. after   15 cycles
 E2(B2PLYPD3) =    -0.4415219943D+00 E(B2PLYPD3) =    -0.34725998008528D+03
 SCF Done:  E(UB2PLYPD3) =  -346.818533282     A.U. after   13 cycles
 E2(B2PLYPD3) =    -0.4415169156D+00 E(B2PLYPD3) =    -0.34726005019768D+03
 SCF Done:  E(UB2PLYPD3) =  -346.818519340     A.U. after   12 cycles
 E2(B2PLYPD3) =    -0.4415336671D+00 E(B2PLYPD3) =    -0.34726005300711D+03
 SCF Done:  E(UB2PLYPD3) =  -346.818525905     A.U. after    7 cycles
 E2(B2PLYPD3) =    -0.4415270368D+00 E(B2PLYPD3) =    -0.34726005294196D+03
 Optimization completed.
    -- Stationary point found.

                          Input orientation:
 ---------------------------------------------------------------------
 Center     Atomic      Atomic             Coordinates (Angstroms)
 Number     Number       Type             X           Y           Z
 ---------------------------------------------------------------------
      1          6           0       -0.330209    0.415326   -1.758629
      2          1           0       -0.504229    0.102684   -2.783325
      3          1           0       -0.039180    1.457453   -1.668605
      4          6           0        1.782797   -0.599762    1.131601
      5          1           0        1.387450    0.410063    1.027408
      6          1           0        1.441948   -1.039302    2.066697
      7          1           0        2.870574   -0.578911    1.096410
      8          8           0        1.272556   -1.446579    0.107393
      9          8           0        1.711430   -0.951382   -1.120093
     10          1           0        0.758252   -0.251434   -1.491269
     11          6           0       -1.268384   -0.067489   -0.772082
     12          6           0       -1.568408    0.572861    0.372785
     13          1           0       -1.715764   -1.039237   -0.948166
     14          1           0       -1.113794    1.541660    0.554992
     15          6           0       -2.488142    0.051370    1.424138
     16          1           0       -1.968385   -0.052020    2.379251
     17          1           0       -3.320943    0.735887    1.596094
     18          1           0       -2.892594   -0.920873    1.150116
 ---------------------------------------------------------------------

 Alpha  occ. eigenvalues --  -19.78650 -19.77887 -10.65742 -10.63111 -10.62699
 Alpha  occ. eigenvalues --  -10.62170 -10.61603  -1.27479  -1.00866  -0.93663
 Alpha  occ. eigenvalues --   -0.85524  -0.77387  -0.75261  -0.64670  -0.60094
 Alpha  occ. eigenvalues --   -0.55665  -0.54429  -0.53342  -0.53049  -0.49667
 Alpha  occ. eigenvalues --   -0.49189  -0.45555  -0.44439  -0.43972  -0.42078
 Alpha  occ. eigenvalues --   -0.39294  -0.35871  -0.34032  -0.26971
 Alpha virt. eigenvalues --    0.07093   0.07495   0.09282   0.10459   0.11508
 Alpha virt. eigenvalues --    0.13452   0.14663   0.15013   0.16108   0.16402
 Alpha virt. eigenvalues --    0.18394   0.18938   0.21020   0.22725   0.25961

  Beta  occ. eigenvalues --  -19.78374 -19.76145 -10.65755 -10.62624 -10.62409
  Beta  occ. eigenvalues --  -10.61775 -10.61658  -1.25386  -0.97684  -0.92774
  Beta  occ. eigenvalues --   -0.84372  -0.76909  -0.73727  -0.64259  -0.56823
  Beta  occ. eigenvalues --   -0.54287  -0.54037  -0.52907  -0.52728  -0.48270
  Beta  occ. eigenvalues --   -0.46601  -0.45297  -0.44055  -0.43011  -0.41775
  Beta  occ. eigenvalues --   -0.35476  -0.34431  -0.29302
  Beta virt. eigenvalues --   -0.05204   0.07304   0.08656   0.09410   0.10627
  Beta virt. eigenvalues --    0.11766   0.13915   0.14832   0.15191   0.16313
  Beta virt. eigenvalues --    0.16547   0.18518   0.19118   0.21821   0.22885

 Mulliken charges and spin densities:
               1          2
     1  C   -0.310505   0.446512
     2  H    0.121577  -0.010397
     3  H    0.107835  -0.010564
     4  C   -0.062409  -0.007171
     5  H    0.069101   0.004266
     6  H    0.093290  -0.001132
     7  H    0.099333   0.001426
     8  O   -0.179651   0.052230
     9  O   -0.227922   0.456628
    10  H    0.214030  -0.074190
    11  C   -0.089578  -0.249839
    12  C   -0.132201   0.396020
    13  H    0.134020   0.008428
    14  H    0.132145  -0.015448
    15  C   -0.270384  -0.028353
    16  H    0.096884   0.017408
    17  H    0.103728   0.013760
    18  H    0.100706   0.000416
 Sum of Mulliken charges =  -0.00000   1.00000

 Dipole moment (field-independent basis, Debye):
    X=             -1.4824    Y=              1.7965    Z=              1.5086  Tot=              2.7750
 Quadrupole moment (field-independent basis, Debye-Ang):
   XX=            -45.3623   YY=            -46.9377   ZZ=            -41.4964
   XY=              3.2329   XZ=              2.7677   YZ=             -1.2389

 Normal termination of Gaussian 16 at Fri Jun 14 13:22:18 2019.
