 Gaussian 16, Revision B.01,
 Gaussian 16:  ES64L-G16RevB.01 20-Dec-2017

 ----------------------------------------------------------------------
 # opt=(calcfc,ts,noeigentest,maxcyc=500) freq=noraman uB2PLYPD3/cc-pvt
 z
 ----------------------------------------------------------------------

 -------------------
 Title Card Required
 -------------------
 Symbolic Z-matrix:
 Charge =  0 Multiplicity = 2

 SCF Done:  E(UB2PLYPD3) =  -346.818508284     A.U. after   20 cycles
 E2(B2PLYPD3) =    -0.4409716976D+00 E(B2PLYPD3) =    -0.34725947998166D+03
 E2(B2PLYPD3) =    -0.4409716976D+00 E(B2PLYPD3) =    -0.34725947998166D+03
 SCF Done:  E(UB2PLYPD3) =  -346.818535326     A.U. after   16 cycles
 E2(B2PLYPD3) =    -0.4415114511D+00 E(B2PLYPD3) =    -0.34726004677674D+03
 SCF Done:  E(UB2PLYPD3) =  -346.818515364     A.U. after   12 cycles
 E2(B2PLYPD3) =    -0.4415379716D+00 E(B2PLYPD3) =    -0.34726005333566D+03
 SCF Done:  E(UB2PLYPD3) =  -346.818521994     A.U. after   10 cycles
 E2(B2PLYPD3) =    -0.4415315104D+00 E(B2PLYPD3) =    -0.34726005350453D+03
 Optimization completed.
    -- Stationary point found.
 Normal termination of Gaussian 16 at Thu Jun  6 23:04:50 2019.

 ----------------------------------------------------------------------
 #N Geom=AllCheck Guess=TCheck SCRF=Check GenChk UB2PLYPD3(FC)/CC-pVTZ
 Freq
 ----------------------------------------------------------------------

 Structure from the checkpoint file:  "/localscratch/341085/Gau-63544.chk"
 -------------------
 Title Card Required
 -------------------
 Charge =  0 Multiplicity = 2

                         Standard orientation:
 ---------------------------------------------------------------------
 Center     Atomic      Atomic             Coordinates (Angstroms)
 Number     Number       Type             X           Y           Z
 ---------------------------------------------------------------------
      1          6           0       -0.072388    1.837857    0.326754
      2          1           0        0.072279    2.790278   -0.173236
      3          1           0       -0.116494    1.920347    1.408461
      4          6           0        1.574635   -1.495115    0.480527
      5          1           0        0.938896   -1.123450    1.283392
      6          1           0        1.182304   -2.435399    0.098795
      7          1           0        2.592435   -1.627867    0.842997
      8          8           0        1.558427   -0.601006   -0.627047
      9          8           0        2.089112    0.617669   -0.205354
     10          1           0        1.077917    1.270877    0.089846
     11          6           0       -1.021692    0.932781   -0.278430
     12          6           0       -1.727814    0.005963    0.394756
     13          1           0       -1.125719    0.972826   -1.356869
     14          1           0       -1.617444   -0.041723    1.473640
     15          6           0       -2.662290   -0.972877   -0.231188
     16          1           0       -2.349288   -1.998164   -0.021649
     17          1           0       -3.672065   -0.868085    0.170125
     18          1           0       -2.705836   -0.844596   -1.310802
 ---------------------------------------------------------------------

 SCF Done:  E(UB2PLYPD3) =  -346.818521994     A.U. after    1 cycles
 E2(B2PLYPD3) =    -0.4415315169D+00 E(B2PLYPD3) =    -0.34726005351110D+03
 E2(B2PLYPD3) =    -0.4415315169D+00 E(B2PLYPD3) =    -0.34726005351110D+03

 The electronic state is 2-A.
 Alpha  occ. eigenvalues --  -19.78650 -19.77888 -10.65742 -10.63111 -10.62699
 Alpha  occ. eigenvalues --  -10.62170 -10.61604  -1.27478  -1.00867  -0.93664
 Alpha  occ. eigenvalues --   -0.85524  -0.77388  -0.75262  -0.64670  -0.60093
 Alpha  occ. eigenvalues --   -0.55666  -0.54429  -0.53343  -0.53049  -0.49667
 Alpha  occ. eigenvalues --   -0.49190  -0.45555  -0.44439  -0.43972  -0.42078
 Alpha  occ. eigenvalues --   -0.39295  -0.35872  -0.34032  -0.26971
 Alpha virt. eigenvalues --    0.07094   0.07493   0.09282   0.10457   0.11509
 Alpha virt. eigenvalues --    0.13451   0.14662   0.15012   0.16108   0.16404
 Alpha virt. eigenvalues --    0.18397   0.18944   0.21024   0.22725   0.25959

  Beta  occ. eigenvalues --  -19.78374 -19.76146 -10.65756 -10.62624 -10.62409
  Beta  occ. eigenvalues --  -10.61775 -10.61658  -1.25385  -0.97685  -0.92774
  Beta  occ. eigenvalues --   -0.84373  -0.76909  -0.73727  -0.64260  -0.56823
  Beta  occ. eigenvalues --   -0.54288  -0.54037  -0.52908  -0.52728  -0.48270
  Beta  occ. eigenvalues --   -0.46602  -0.45297  -0.44055  -0.43012  -0.41774
  Beta  occ. eigenvalues --   -0.35477  -0.34432  -0.29303
  Beta virt. eigenvalues --   -0.05205   0.07306   0.08655   0.09410   0.10625
  Beta virt. eigenvalues --    0.11766   0.13915   0.14832   0.15190   0.16314
  Beta virt. eigenvalues --    0.16550   0.18521   0.19125   0.21826   0.22885

 Mulliken charges and spin densities:
               1          2
     1  C   -0.310551   0.446470
     2  H    0.121575  -0.010392
     3  H    0.107853  -0.010568
     4  C   -0.062434  -0.007170
     5  H    0.069080   0.004269
     6  H    0.093295  -0.001133
     7  H    0.099356   0.001421
     8  O   -0.179633   0.052234
     9  O   -0.227916   0.456663
    10  H    0.214042  -0.074194
    11  C   -0.089560  -0.249846
    12  C   -0.132217   0.396033
    13  H    0.134001   0.008427
    14  H    0.132171  -0.015446
    15  C   -0.270370  -0.028357
    16  H    0.096875   0.017428
    17  H    0.103730   0.013744
    18  H    0.100701   0.000416
 Sum of Mulliken charges =  -0.00000   1.00000

 Dipole moment (field-independent basis, Debye):
    X=             -2.2194    Y=             -0.8526    Z=              1.4313  Tot=              2.7752
 Quadrupole moment (field-independent basis, Debye-Ang):
   XX=            -48.2072   YY=            -40.7009   ZZ=            -43.9349
   XY=             -1.0179   XZ=              2.6232   YZ=             -1.2155

  Exact polarizability: 117.400  -0.191  88.794  -3.610  -0.184  61.674
 Approx polarizability: 106.245   6.674  93.021  -6.625  -0.950  75.201

 ******    1 imaginary frequencies (negative Signs) ******

                      1                      2                      3
                      A                      A                      A
 Frequencies --  -1915.7284                42.8528                56.7454
 Red. masses --      1.1299                 3.0308                 3.9163
 Frc consts  --      2.4432                 0.0033                 0.0074
 IR Inten    --   2142.7537                 2.5384                 0.2168

                      4                      5                      6
                      A                      A                      A
 Frequencies --    117.2057               128.1218               174.9040
 Red. masses --      1.9629                 2.1091                 1.4978
 Frc consts  --      0.0159                 0.0204                 0.0270
 IR Inten    --      1.1766                 4.1975                 0.9884

                      7                      8                      9
                      A                      A                      A
 Frequencies --    203.9931               230.7349               285.8457
 Red. masses --      1.3830                 1.8397                 2.2488
 Frc consts  --      0.0339                 0.0577                 0.1083
 IR Inten    --      0.6113                 0.8295                 0.5944

                     10                     11                     12
                      A                      A                      A
 Frequencies --    367.0483               463.1954               491.7433
 Red. masses --      3.4868                 2.7243                 2.1313
 Frc consts  --      0.2768                 0.3444                 0.3036
 IR Inten    --      0.8885                 2.5640                 1.3729

                     13                     14                     15
                      A                      A                      A
 Frequencies --    553.5299               572.8007               810.1748
 Red. masses --      1.4666                 4.1284                 1.3694
 Frc consts  --      0.2648                 0.7981                 0.5296
 IR Inten    --      3.5944                32.7378                 0.3610

                     16                     17                     18
                      A                      A                      A
 Frequencies --    901.6321               931.5672               997.0519
 Red. masses --      1.7074                 4.8249                 1.1125
 Frc consts  --      0.8178                 2.4670                 0.6516
 IR Inten    --      7.1288                20.2165                15.1605

                     19                     20                     21
                      A                      A                      A
 Frequencies --   1008.8092              1051.2962              1066.3341
 Red. masses --      1.1879                 5.0608                 1.5360
 Frc consts  --      0.7123                 3.2955                 1.0290
 IR Inten    --     11.6797                56.7279                 0.6828

                     22                     23                     24
                      A                      A                      A
 Frequencies --   1088.2769              1133.5613              1173.2520
 Red. masses --      1.5741                 2.6296                 1.2756
 Frc consts  --      1.0984                 1.9908                 1.0345
 IR Inten    --     10.5129                 6.8641                 2.6578

                     25                     26                     27
                      A                      A                      A
 Frequencies --   1197.3707              1215.3217              1218.0017
 Red. masses --      2.0254                 1.5640                 1.0574
 Frc consts  --      1.7109                 1.3610                 0.9242
 IR Inten    --      2.0118                 1.3293                14.1464

                     28                     29                     30
                      A                      A                      A
 Frequencies --   1339.1724              1350.1717              1422.3008
 Red. masses --      1.3523                 1.3109                 1.2651
 Frc consts  --      1.4289                 1.4080                 1.5078
 IR Inten    --      2.1019                 2.8648                 3.5987

                     31                     32                     33
                      A                      A                      A
 Frequencies --   1453.1269              1456.2928              1481.2036
 Red. masses --      1.0531                 1.1389                 1.0615
 Frc consts  --      1.3101                 1.4231                 1.3721
 IR Inten    --     20.6044                 3.6542                 6.3840

                     34                     35                     36
                      A                      A                      A
 Frequencies --   1487.2844              1489.1746              1502.9687
 Red. masses --      1.1621                 1.0515                 1.0939
 Frc consts  --      1.5145                 1.3738                 1.4559
 IR Inten    --      5.8984                 8.6405                15.7791

                     37                     38                     39
                      A                      A                      A
 Frequencies --   1512.7948              1673.0128              3034.9743
 Red. masses --      1.0487                 4.4534                 1.0375
 Frc consts  --      1.4140                 7.3440                 5.6303
 IR Inten    --      7.7613                60.0522                23.0304

                     40                     41                     42
                      A                      A                      A
 Frequencies --   3044.9060              3082.1168              3103.6125
 Red. masses --      1.0278                 1.0983                 1.0540
 Frc consts  --      5.6146                 6.1471                 5.9819
 IR Inten    --     42.1302                15.5614                13.8385

                     43                     44                     45
                      A                      A                      A
 Frequencies --   3123.6391              3126.6479              3145.9953
 Red. masses --      1.1065                 1.0972                 1.1049
 Frc consts  --      6.3612                 6.3197                 6.4430
 IR Inten    --     32.5254                 5.3578                12.2009

                     46                     47                     48
                      A                      A                      A
 Frequencies --   3147.5551              3161.6889              3188.5348
 Red. masses --      1.0915                 1.0897                 1.1094
 Frc consts  --      6.3713                 6.4181                 6.6452
 IR Inten    --     20.8119                13.1531                14.7713

 - Thermochemistry -
 -------------------
 Temperature   298.150 Kelvin.  Pressure   1.00000 Atm.
 Atom     1 has atomic number  6 and mass  12.00000

 Molecular mass:   103.07590 amu.
 Principal axes and moments of inertia in atomic units:
                           1         2         3
     Eigenvalues --   553.734771203.154911581.79568
           X            0.99974   0.01364   0.01853
           Y           -0.01345   0.99986  -0.01028
           Z           -0.01867   0.01003   0.99978
 This molecule is an asymmetric top.
 Rotational symmetry number  1.
 Warning -- assumption of classical behavior for rotation
           may cause significant error
 Rotational temperatures (Kelvin)      0.15642     0.07199     0.05476
 Rotational constants (GHZ):           3.25922     1.50001     1.14094
    1 imaginary frequencies ignored.
 Zero-point vibrational energy     387641.2 (Joules/Mol)
                                   92.64847 (Kcal/Mol)
 Warning -- explicit consideration of  13 degrees of freedom as
           vibrations may cause significant error
 Vibrational temperatures:     61.66    81.64   168.63   184.34   251.65
          (Kelvin)            293.50   331.98   411.27   528.10   666.43
                              707.51   796.41   824.13  1165.66  1297.25
                             1340.32  1434.54  1451.45  1512.58  1534.22
                             1565.79  1630.94  1688.05  1722.75  1748.58
                             1752.43  1926.77  1942.60  2046.37  2090.73
                             2095.28  2131.12  2139.87  2142.59  2162.44
                             2176.57  2407.09  4366.65  4380.94  4434.48
                             4465.41  4494.22  4498.55  4526.39  4528.63
                             4548.97  4587.59

 Zero-point correction=                           0.147645 (Hartree/Particle)
 Thermal correction to Energy=                    0.157318
 Thermal correction to Enthalpy=                  0.158262
 Thermal correction to Gibbs Free Energy=         0.111656
 Sum of electronic and zero-point Energies=           -347.112409
 Sum of electronic and thermal Energies=              -347.102736
 Sum of electronic and thermal Enthalpies=            -347.101792
 Sum of electronic and thermal Free Energies=         -347.148398

                     E (Thermal)             CV                S
                      KCal/Mol        Cal/Mol-Kelvin    Cal/Mol-Kelvin
 Total                   98.718             32.626             98.090
 Electronic               0.000              0.000              1.377
 Translational            0.889              2.981             39.808
 Rotational               0.889              2.981             28.446
 Vibrational             96.941             26.664             28.459
 Vibration     1          0.595              1.980              5.123
 Vibration     2          0.596              1.975              4.567
 Vibration     3          0.608              1.935              3.146
 Vibration     4          0.611              1.925              2.974
 Vibration     5          0.627              1.873              2.382
 Vibration     6          0.640              1.834              2.097
 Vibration     7          0.652              1.794              1.873
 Vibration     8          0.684              1.700              1.498
 Vibration     9          0.740              1.540              1.092
 Vibration    10          0.821              1.332              0.757
 Vibration    11          0.847              1.268              0.679
 Vibration    12          0.909              1.132              0.537
 Vibration    13          0.929              1.090              0.499

                           ! Non-Optimized Parameters !

 1\1\GINC-N58\Freq\UB2PLYPD3-FC\CC-pVTZ\C5H11O2(2)\ROOT\07-Jun-2019\0\\
 #N Geom=AllCheck Guess=TCheck SCRF=Check GenChk UB2PLYPD3(FC)/CC-pVTZ
 Freq\\Title Card Required\\0,2\C,-0.0151688414,-1.843817961,-0.3222865
 757\H,0.1654888005,-2.7876743227,0.1822160004\H,-0.0663783552,-1.93474
 10531,-1.4030039084\C,1.5191835064,1.5406751564,-0.5120301834\H,0.8888
 008395,1.1430066889,-1.306618072\H,1.0994454522,2.4699437191,-0.132481
 9064\H,2.5286872342,1.7046211612,-0.8847893687\O,1.5426690758,0.653728
 0517,0.6011575593\O,2.1095268179,-0.5494628439,0.1820841656\H,1.117854

 Normal termination of Gaussian 16 at Fri Jun  7 01:07:23 2019.
