 Gaussian 16, Revision B.01,
 Gaussian 16:  ES64L-G16RevB.01 20-Dec-2017

 ----------------------------------------------------------------------
 # opt=(calcfc,ts,noeigentest,maxcyc=500) freq=noraman uB2PLYPD3/cc-pvt
 z
 ----------------------------------------------------------------------

 -------------------
 Title Card Required
 -------------------
 Symbolic Z-matrix:
 Charge =  0 Multiplicity = 2

 SCF Done:  E(UB2PLYPD3) =  -346.806072991     A.U. after   21 cycles
 E2(B2PLYPD3) =    -0.4396325767D+00 E(B2PLYPD3) =    -0.34724570556784D+03
 E2(B2PLYPD3) =    -0.4396325767D+00 E(B2PLYPD3) =    -0.34724570556784D+03
 SCF Done:  E(UB2PLYPD3) =  -346.806253693     A.U. after   18 cycles
 E2(B2PLYPD3) =    -0.4400108375D+00 E(B2PLYPD3) =    -0.34724626453031D+03
 SCF Done:  E(UB2PLYPD3) =  -346.806229984     A.U. after   15 cycles
 E2(B2PLYPD3) =    -0.4400585262D+00 E(B2PLYPD3) =    -0.34724628851049D+03
 SCF Done:  E(UB2PLYPD3) =  -346.806217746     A.U. after   15 cycles
 E2(B2PLYPD3) =    -0.4400785639D+00 E(B2PLYPD3) =    -0.34724629630995D+03
 SCF Done:  E(UB2PLYPD3) =  -346.806218399     A.U. after   11 cycles
 E2(B2PLYPD3) =    -0.4400783265D+00 E(B2PLYPD3) =    -0.34724629672590D+03
 SCF Done:  E(UB2PLYPD3) =  -346.806219453     A.U. after    7 cycles
 E2(B2PLYPD3) =    -0.4400773289D+00 E(B2PLYPD3) =    -0.34724629678147D+03
 Optimization completed.
    -- Stationary point found.
 Normal termination of Gaussian 16 at Fri Jun  7 03:47:26 2019.

 ----------------------------------------------------------------------
 #N Geom=AllCheck Guess=TCheck SCRF=Check GenChk UB2PLYPD3(FC)/CC-pVTZ
 Freq
 ----------------------------------------------------------------------

 Structure from the checkpoint file:  "/localscratch/341085/Gau-39402.chk"
 -------------------
 Title Card Required
 -------------------
 Charge =  0 Multiplicity = 2

                         Standard orientation:
 ---------------------------------------------------------------------
 Center     Atomic      Atomic             Coordinates (Angstroms)
 Number     Number       Type             X           Y           Z
 ---------------------------------------------------------------------
      1          6           0       -1.203661   -0.476627    0.032938
      2          6           0       -1.727741    0.700339   -0.236462
      3          6           0        2.324235   -0.200824   -0.866116
      4          1           0        1.484594   -0.440187   -1.521633
      5          1           0        2.969259    0.532870   -1.345487
      6          1           0        2.886426   -1.104317   -0.635355
      7          8           0        1.868425    0.423137    0.323650
      8          8           0        1.114067   -0.529406    1.048076
      9          1           0        0.072812   -0.452259    0.616646
     10          1           0       -2.718906    0.704674   -0.694581
     11          6           0       -1.666558   -1.871646   -0.143823
     12          1           0       -2.657999   -1.881007   -0.604856
     13          1           0       -0.986596   -2.438460   -0.779490
     14          1           0       -1.729851   -2.391387    0.812082
     15          6           0       -1.109317    2.039966    0.029981
     16          1           0       -0.114712    1.940454    0.454104
     17          1           0       -1.036326    2.617673   -0.892307
     18          1           0       -1.730379    2.614851    0.717965
 ---------------------------------------------------------------------

 SCF Done:  E(UB2PLYPD3) =  -346.806219453     A.U. after    1 cycles
 E2(B2PLYPD3) =    -0.4400773098D+00 E(B2PLYPD3) =    -0.34724629676235D+03
 E2(B2PLYPD3) =    -0.4400773098D+00 E(B2PLYPD3) =    -0.34724629676235D+03

 The electronic state is 2-A.
 Alpha  occ. eigenvalues --  -19.78332 -19.78087 -10.65837 -10.64505 -10.62760
 Alpha  occ. eigenvalues --  -10.62621 -10.60853  -1.26953  -1.02182  -0.93544
 Alpha  occ. eigenvalues --   -0.85322  -0.77682  -0.76110  -0.65183  -0.58222
 Alpha  occ. eigenvalues --   -0.55496  -0.54453  -0.53091  -0.51799  -0.50066
 Alpha  occ. eigenvalues --   -0.48489  -0.47595  -0.44846  -0.44201  -0.43632
 Alpha  occ. eigenvalues --   -0.37043  -0.35895  -0.30903  -0.29895
 Alpha virt. eigenvalues --    0.06974   0.07628   0.09429   0.10138   0.12619
 Alpha virt. eigenvalues --    0.13027   0.14691   0.15503   0.15651   0.16422
 Alpha virt. eigenvalues --    0.18137   0.19319   0.20429   0.22169   0.24513

  Beta  occ. eigenvalues --  -19.78221 -19.76654 -10.65842 -10.63022 -10.62803
  Beta  occ. eigenvalues --  -10.62733 -10.60779  -1.25294  -0.99594  -0.91834
  Beta  occ. eigenvalues --   -0.84871  -0.77260  -0.75389  -0.61464  -0.56430
  Beta  occ. eigenvalues --   -0.54358  -0.54133  -0.52271  -0.50147  -0.49704
  Beta  occ. eigenvalues --   -0.47725  -0.45695  -0.44188  -0.43647  -0.42836
  Beta  occ. eigenvalues --   -0.35579  -0.33403  -0.30222
  Beta virt. eigenvalues --   -0.04825   0.07634   0.08010   0.09566   0.10313
  Beta virt. eigenvalues --    0.12952   0.13339   0.14807   0.15529   0.15776
  Beta virt. eigenvalues --    0.16644   0.18430   0.19846   0.20494   0.22544

 Mulliken charges and spin densities:
               1          2
     1  C   -0.106339   0.705021
     2  C   -0.135539  -0.136398
     3  C   -0.061064  -0.002290
     4  H    0.070296  -0.000027
     5  H    0.096900  -0.000786
     6  H    0.090233   0.001884
     7  O   -0.190649   0.020707
     8  O   -0.227013   0.362103
     9  H    0.225988  -0.068652
    10  H    0.132197   0.061865
    11  C   -0.268203  -0.006257
    12  H    0.100834   0.041463
    13  H    0.108245   0.003546
    14  H    0.116045   0.003533
    15  C   -0.275944   0.021778
    16  H    0.127097   0.000503
    17  H    0.095138  -0.004265
    18  H    0.101776  -0.003728
 Sum of Mulliken charges =  -0.00000   1.00000

 Dipole moment (field-independent basis, Debye):
    X=             -1.4879    Y=             -0.5534    Z=             -2.3110  Tot=              2.8037
 Quadrupole moment (field-independent basis, Debye-Ang):
   XX=            -41.3585   YY=            -42.2137   ZZ=            -46.2964
   XY=             -0.1332   XZ=             -3.6724   YZ=              0.2002

  Exact polarizability: 105.210  -0.804  85.747   3.427  -2.363  59.646
 Approx polarizability:  93.611  -1.483  91.434   4.957  -5.164  72.333

 ******    1 imaginary frequencies (negative Signs) ******

                      1                      2                      3
                      A                      A                      A
 Frequencies --  -1678.9110                25.2106                65.8439
 Red. masses --      1.1311                 3.5390                 2.7072
 Frc consts  --      1.8785                 0.0013                 0.0069
 IR Inten    --   1541.0564                 2.5770                 1.9399

                      4                      5                      6
                      A                      A                      A
 Frequencies --    100.6097               134.1779               161.7484
 Red. masses --      2.9073                 1.3976                 1.0651
 Frc consts  --      0.0173                 0.0148                 0.0164
 IR Inten    --      1.3290                 0.7811                 0.3987

                      7                      8                      9
                      A                      A                      A
 Frequencies --    178.3789               214.0008               219.5894
 Red. masses --      1.6723                 1.9864                 2.4160
 Frc consts  --      0.0314                 0.0536                 0.0686
 IR Inten    --      0.5266                 2.3861                 2.0894

                     10                     11                     12
                      A                      A                      A
 Frequencies --    263.5673               313.8380               463.4504
 Red. masses --      1.6769                 2.8600                 3.7077
 Frc consts  --      0.0686                 0.1660                 0.4692
 IR Inten    --      0.8942                 4.1866                 4.7254

                     13                     14                     15
                      A                      A                      A
 Frequencies --    468.5572               576.3345               769.2980
 Red. masses --      3.6428                 3.7678                 1.1984
 Frc consts  --      0.4712                 0.7374                 0.4179
 IR Inten    --      4.6658                 5.6561                 9.1427

                     16                     17                     18
                      A                      A                      A
 Frequencies --    876.1175               909.6440               926.5749
 Red. masses --      1.7250                 4.8656                 1.1000
 Frc consts  --      0.7801                 2.3721                 0.5564
 IR Inten    --      2.3562                11.9266                21.3330

                     19                     20                     21
                      A                      A                      A
 Frequencies --   1015.0259              1054.8253              1064.1694
 Red. masses --      1.2570                 7.1061                 1.4795
 Frc consts  --      0.7630                 4.6585                 0.9871
 IR Inten    --     10.9508                36.2577                 1.5182

                     22                     23                     24
                      A                      A                      A
 Frequencies --   1079.6613              1094.1602              1170.7650
 Red. masses --      1.4353                 3.8815                 2.1604
 Frc consts  --      0.9858                 2.7379                 1.7447
 IR Inten    --      0.5168                 1.9609                 5.6990

                     25                     26                     27
                      A                      A                      A
 Frequencies --   1178.4230              1217.6505              1309.3998
 Red. masses --      1.2893                 1.5902                 1.2911
 Frc consts  --      1.0549                 1.3891                 1.3042
 IR Inten    --      2.6001                 3.9963                15.3311

                     28                     29                     30
                      A                      A                      A
 Frequencies --   1407.5417              1424.9758              1452.0519
 Red. masses --      1.2409                 1.2301                 1.0970
 Frc consts  --      1.4485                 1.4717                 1.3627
 IR Inten    --      0.4659                 1.5270                 1.8521

                     31                     32                     33
                      A                      A                      A
 Frequencies --   1458.3090              1471.9003              1481.7458
 Red. masses --      1.1323                 1.0455                 1.0518
 Frc consts  --      1.4188                 1.3345                 1.3606
 IR Inten    --      4.9250                10.0432                 8.7156

                     34                     35                     36
                      A                      A                      A
 Frequencies --   1496.5577              1500.8267              1508.3023
 Red. masses --      1.0541                 1.0438                 1.0489
 Frc consts  --      1.3910                 1.3852                 1.4059
 IR Inten    --      2.0171                 6.7207                 8.0889

                     37                     38                     39
                      A                      A                      A
 Frequencies --   1518.0339              1763.0294              3025.3621
 Red. masses --      1.0506                 7.8169                 1.0387
 Frc consts  --      1.4264                14.3153                 5.6015
 IR Inten    --     10.2629                 2.9880                19.0420

                     40                     41                     42
                      A                      A                      A
 Frequencies --   3031.6423              3047.9327              3063.6819
 Red. masses --      1.0317                 1.0393                 1.0820
 Frc consts  --      5.5868                 5.6887                 5.9836
 IR Inten    --     32.5928                30.7642                23.0831

                     43                     44                     45
                      A                      A                      A
 Frequencies --   3097.8637              3098.5813              3109.0030
 Red. masses --      1.0947                 1.0998                 1.1024
 Frc consts  --      6.1896                 6.2216                 6.2784
 IR Inten    --     13.0831                17.8904                44.9699

                     46                     47                     48
                      A                      A                      A
 Frequencies --   3110.1241              3143.2963              3160.4835
 Red. masses --      1.1008                 1.1046                 1.0996
 Frc consts  --      6.2738                 6.4302                 6.4713
 IR Inten    --      8.4491                14.6591                 3.2156

 - Thermochemistry -
 -------------------
 Temperature   298.150 Kelvin.  Pressure   1.00000 Atm.
 Atom     1 has atomic number  6 and mass  12.00000

 Molecular mass:   103.07590 amu.
 Principal axes and moments of inertia in atomic units:
                           1         2         3
     Eigenvalues --   647.386201148.189591527.59190
           X            0.99976  -0.00030  -0.02179
           Y            0.00059   0.99991   0.01323
           Z            0.02179  -0.01324   0.99968
 This molecule is an asymmetric top.
 Rotational symmetry number  1.
 Warning -- assumption of classical behavior for rotation
           may cause significant error
 Rotational temperatures (Kelvin)      0.13379     0.07544     0.05670
 Rotational constants (GHZ):           2.78774     1.57181     1.18143
    1 imaginary frequencies ignored.
 Zero-point vibrational energy     384134.5 (Joules/Mol)
                                   91.81034 (Kcal/Mol)
 Warning -- explicit consideration of  13 degrees of freedom as
           vibrations may cause significant error
 Vibrational temperatures:     36.27    94.73   144.75   193.05   232.72
          (Kelvin)            256.65   307.90   315.94   379.21   451.54
                              666.80   674.15   829.22  1106.85  1260.54
                             1308.77  1333.13  1460.40  1517.66  1531.10
                             1553.39  1574.25  1684.47  1695.49  1751.93
                             1883.93  2025.14  2050.22  2089.18  2098.18
                             2117.74  2131.90  2153.21  2159.35  2170.11
                             2184.11  2536.61  4352.82  4361.86  4385.30
                             4407.95  4457.13  4458.17  4473.16  4474.77
                             4522.50  4547.23

 Zero-point correction=                           0.146309 (Hartree/Particle)
 Thermal correction to Energy=                    0.156584
 Thermal correction to Enthalpy=                  0.157529
 Thermal correction to Gibbs Free Energy=         0.109252
 Sum of electronic and zero-point Energies=           -347.099988
 Sum of electronic and thermal Energies=              -347.089712
 Sum of electronic and thermal Enthalpies=            -347.088768
 Sum of electronic and thermal Free Energies=         -347.137045

                     E (Thermal)             CV                S
                      KCal/Mol        Cal/Mol-Kelvin    Cal/Mol-Kelvin
 Total                   98.258             33.702            101.606
 Electronic               0.000              0.000              1.377
 Translational            0.889              2.981             39.808
 Rotational               0.889              2.981             28.520
 Vibrational             96.481             27.741             31.901
 Vibration     1          0.593              1.985              6.175
 Vibration     2          0.597              1.971              4.274
 Vibration     3          0.604              1.949              3.442
 Vibration     4          0.613              1.919              2.885
 Vibration     5          0.622              1.889              2.529
 Vibration     6          0.629              1.869              2.345
 Vibration     7          0.644              1.820              2.009
 Vibration     8          0.647              1.811              1.962
 Vibration     9          0.670              1.740              1.638
 Vibration    10          0.702              1.647              1.342
 Vibration    11          0.821              1.331              0.756
 Vibration    12          0.826              1.320              0.742
 Vibration    13          0.933              1.082              0.492

 Optimization completed.
    -- Stationary point found.

 1\1\GINC-N58\Freq\UB2PLYPD3-FC\CC-pVTZ\C5H11O2(2)\ROOT\07-Jun-2019\0\\
 #N Geom=AllCheck Guess=TCheck SCRF=Check GenChk UB2PLYPD3(FC)/CC-pVTZ
 Freq\\Title Card Required\\0,2\C,1.1771628583,0.5671298092,0.073911201
 1\C,1.7557049825,-0.5561646024,-0.2948464825\C,-2.3444652118,0.1851302
 714,-0.8107535365\H,-1.5268571466,0.5188343667,-1.4527453804\H,-2.9584
 797266,-0.5395760706,-1.3417394491\H,-2.9479221628,1.0373559372,-0.502
 271564\O,-1.841850309,-0.5083700134,0.320204975\O,-1.1262476284,0.4200
 736804,1.1120965982\H,-0.0884181041,0.4309677081,0.6659065404\H,2.7395

 Normal termination of Gaussian 16 at Fri Jun  7 05:42:57 2019.
