 Gaussian 16, Revision B.01,
 Gaussian 16:  ES64L-G16RevB.01 20-Dec-2017

 ----------------------------------------------------------------------
 # opt=(calcfc,ts,noeigentest,maxcyc=500) freq=noraman uB2PLYPD3/cc-pvt
 z
 ----------------------------------------------------------------------

 -------------------
 Title Card Required
 -------------------
 Symbolic Z-matrix:
 Charge =  0 Multiplicity = 2

 SCF Done:  E(UB2PLYPD3) =  -345.557428705     A.U. after   22 cycles
 E2(B2PLYPD3) =    -0.4322923320D+00 E(B2PLYPD3) =    -0.34598972103696D+03
 E2(B2PLYPD3) =    -0.4322923320D+00 E(B2PLYPD3) =    -0.34598972103696D+03
 SCF Done:  E(UB2PLYPD3) =  -345.577051279     A.U. after   18 cycles
 E2(B2PLYPD3) =    -0.4322114040D+00 E(B2PLYPD3) =    -0.34600926268348D+03
 SCF Done:  E(UB2PLYPD3) =  -345.583264390     A.U. after   20 cycles
 E2(B2PLYPD3) =    -0.4322745996D+00 E(B2PLYPD3) =    -0.34601553898982D+03
 SCF Done:  E(UB2PLYPD3) =  -345.583058444     A.U. after   17 cycles
 E2(B2PLYPD3) =    -0.4329544771D+00 E(B2PLYPD3) =    -0.34601601292070D+03
 SCF Done:  E(UB2PLYPD3) =  -345.583601164     A.U. after   20 cycles
 E2(B2PLYPD3) =    -0.4324361100D+00 E(B2PLYPD3) =    -0.34601603727375D+03
 SCF Done:  E(UB2PLYPD3) =  -345.583376795     A.U. after   22 cycles
 E2(B2PLYPD3) =    -0.4331021143D+00 E(B2PLYPD3) =    -0.34601647890893D+03
 SCF Done:  E(UB2PLYPD3) =  -345.583177461     A.U. after   20 cycles
 E2(B2PLYPD3) =    -0.4329479366D+00 E(B2PLYPD3) =    -0.34601612539729D+03
 SCF Done:  E(UB2PLYPD3) =  -345.583303207     A.U. after   23 cycles
 E2(B2PLYPD3) =    -0.4325367239D+00 E(B2PLYPD3) =    -0.34601583993075D+03
 SCF Done:  E(UB2PLYPD3) =  -345.583737889     A.U. after   21 cycles
 E2(B2PLYPD3) =    -0.4335902413D+00 E(B2PLYPD3) =    -0.34601732812997D+03
 SCF Done:  E(UB2PLYPD3) =  -345.583916044     A.U. after   21 cycles
 E2(B2PLYPD3) =    -0.4336520181D+00 E(B2PLYPD3) =    -0.34601756806245D+03
 E2(B2PLYPD3) =    -0.4356604068D+00 E(B2PLYPD3) =    -0.34601735172885D+03
 E2(B2PLYPD3) =    -0.4329171754D+00 E(B2PLYPD3) =    -0.34601742159170D+03
 E2(B2PLYPD3) =    -0.4335798488D+00 E(B2PLYPD3) =    -0.34601836289937D+03
 E2(B2PLYPD3) =    -0.4346283533D+00 E(B2PLYPD3) =    -0.34601868242004D+03
 E2(B2PLYPD3) =    -0.4342929689D+00 E(B2PLYPD3) =    -0.34601878912537D+03
 E2(B2PLYPD3) =    -0.4350360481D+00 E(B2PLYPD3) =    -0.34601833036205D+03
 E2(B2PLYPD3) =    -0.4345593743D+00 E(B2PLYPD3) =    -0.34601793394943D+03
 E2(B2PLYPD3) =    -0.4355358236D+00 E(B2PLYPD3) =    -0.34601808361300D+03
 E2(B2PLYPD3) =    -0.4339944667D+00 E(B2PLYPD3) =    -0.34601841003264D+03
 E2(B2PLYPD3) =    -0.4345661333D+00 E(B2PLYPD3) =    -0.34601880176864D+03
 E2(B2PLYPD3) =    -0.4346480297D+00 E(B2PLYPD3) =    -0.34601879975899D+03
 E2(B2PLYPD3) =    -0.4345351658D+00 E(B2PLYPD3) =    -0.34601880695788D+03
 E2(B2PLYPD3) =    -0.4346467468D+00 E(B2PLYPD3) =    -0.34601883986635D+03
 E2(B2PLYPD3) =    -0.4345637964D+00 E(B2PLYPD3) =    -0.34601885986892D+03
 E2(B2PLYPD3) =    -0.4346792361D+00 E(B2PLYPD3) =    -0.34601885780167D+03
 E2(B2PLYPD3) =    -0.4346177291D+00 E(B2PLYPD3) =    -0.34601888962626D+03
 E2(B2PLYPD3) =    -0.4345859155D+00 E(B2PLYPD3) =    -0.34601885684655D+03
 E2(B2PLYPD3) =    -0.4346108229D+00 E(B2PLYPD3) =    -0.34601889096212D+03
 SCF Done:  E(UB2PLYPD3) =  -345.584250051     A.U. after   16 cycles
 E2(B2PLYPD3) =    -0.4346340990D+00 E(B2PLYPD3) =    -0.34601888415037D+03
 SCF Done:  E(UB2PLYPD3) =  -345.584276127     A.U. after   14 cycles
 E2(B2PLYPD3) =    -0.4346164445D+00 E(B2PLYPD3) =    -0.34601889257182D+03
 SCF Done:  E(UB2PLYPD3) =  -345.584277678     A.U. after   13 cycles
 E2(B2PLYPD3) =    -0.4346150803D+00 E(B2PLYPD3) =    -0.34601889275795D+03
 SCF Done:  E(UB2PLYPD3) =  -345.584277699     A.U. after   11 cycles
 E2(B2PLYPD3) =    -0.4346152637D+00 E(B2PLYPD3) =    -0.34601889296246D+03
 SCF Done:  E(UB2PLYPD3) =  -345.584230848     A.U. after   16 cycles
 E2(B2PLYPD3) =    -0.4346538486D+00 E(B2PLYPD3) =    -0.34601888469658D+03
 SCF Done:  E(UB2PLYPD3) =  -345.584276998     A.U. after   15 cycles
 E2(B2PLYPD3) =    -0.4346154231D+00 E(B2PLYPD3) =    -0.34601889242076D+03
 SCF Done:  E(UB2PLYPD3) =  -345.584265955     A.U. after   14 cycles
 E2(B2PLYPD3) =    -0.4346246841D+00 E(B2PLYPD3) =    -0.34601889063870D+03
 SCF Done:  E(UB2PLYPD3) =  -345.584277302     A.U. after   14 cycles
 E2(B2PLYPD3) =    -0.4346156159D+00 E(B2PLYPD3) =    -0.34601889291749D+03
 SCF Done:  E(UB2PLYPD3) =  -345.584275689     A.U. after    7 cycles
 E2(B2PLYPD3) =    -0.4346171711D+00 E(B2PLYPD3) =    -0.34601889286022D+03
 Optimization completed.
    -- Stationary point found.
 Normal termination of Gaussian 16 at Thu Jun  6 19:10:36 2019.

 ----------------------------------------------------------------------
 #N Geom=AllCheck Guess=TCheck SCRF=Check GenChk UB2PLYPD3(FC)/CC-pVTZ
 Freq
 ----------------------------------------------------------------------

 Structure from the checkpoint file:  "/localscratch/341085/Gau-81949.chk"
 -------------------
 Title Card Required
 -------------------
 Charge =  0 Multiplicity = 2

                         Standard orientation:
 ---------------------------------------------------------------------
 Center     Atomic      Atomic             Coordinates (Angstroms)
 Number     Number       Type             X           Y           Z
 ---------------------------------------------------------------------
      1          6           0       -0.083535    1.929166   -0.287355
      2          1           0       -0.083809    2.749651    0.423557
      3          1           0       -0.334194    2.233430   -1.298666
      4          6           0       -1.498163   -1.458487   -0.628462
      5          1           0       -0.963428   -0.936953   -1.421662
      6          1           0       -1.036035   -2.425600   -0.442461
      7          1           0       -2.544995   -1.583320   -0.898891
      8          8           0       -1.387660   -0.746767    0.600267
      9          8           0       -2.030085    0.480913    0.447783
     10          1           0       -1.149177    1.217825    0.099317
     11          6           0        0.974240    1.005042   -0.160748
     12          6           0        1.810539    0.137483   -0.014046
     13          6           0        2.825243   -0.887122    0.170619
     14          1           0        2.457959   -1.671438    0.832936
     15          1           0        3.100547   -1.345738   -0.778151
     16          1           0        3.725144   -0.467512    0.619578
 ---------------------------------------------------------------------

 SCF Done:  E(UB2PLYPD3) =  -345.584275689     A.U. after    1 cycles
 E2(B2PLYPD3) =    -0.4346171998D+00 E(B2PLYPD3) =    -0.34601889288893D+03
 E2(B2PLYPD3) =    -0.4346171998D+00 E(B2PLYPD3) =    -0.34601889288893D+03

 The electronic state is 2-A.
 Alpha  occ. eigenvalues --  -19.78831 -19.78177 -10.65749 -10.64805 -10.64064
 Alpha  occ. eigenvalues --  -10.62977 -10.61836  -1.27793  -1.01318  -0.92251
 Alpha  occ. eigenvalues --   -0.87105  -0.78984  -0.77196  -0.61034  -0.57372
 Alpha  occ. eigenvalues --   -0.55609  -0.54519  -0.52637  -0.52120  -0.50944
 Alpha  occ. eigenvalues --   -0.50320  -0.49869  -0.44086  -0.40309  -0.36153
 Alpha  occ. eigenvalues --   -0.34905  -0.31597  -0.27684
 Alpha virt. eigenvalues --    0.07016   0.09212   0.09531   0.10943   0.11291
 Alpha virt. eigenvalues --    0.13576   0.14046   0.15430   0.16733   0.17856
 Alpha virt. eigenvalues --    0.18580   0.20808   0.21284   0.23713   0.27212

  Beta  occ. eigenvalues --  -19.78524 -19.76564 -10.65764 -10.64121 -10.63797
  Beta  occ. eigenvalues --  -10.62429 -10.62141  -1.25756  -0.98332  -0.91205
  Beta  occ. eigenvalues --   -0.85926  -0.77778  -0.76401  -0.57918  -0.56428
  Beta  occ. eigenvalues --   -0.54341  -0.54087  -0.52226  -0.51695  -0.50126
  Beta  occ. eigenvalues --   -0.50053  -0.46950  -0.43199  -0.35876  -0.34892
  Beta  occ. eigenvalues --   -0.31388  -0.30370
  Beta virt. eigenvalues --   -0.06127   0.07068   0.09510   0.09628   0.11236
  Beta virt. eigenvalues --    0.12136   0.13752   0.14554   0.15817   0.16811
  Beta virt. eigenvalues --    0.17993   0.18922   0.21303   0.21831   0.24008

 Mulliken charges and spin densities:
               1          2
     1  C   -0.358324   0.500914
     2  H    0.136149  -0.013169
     3  H    0.128556  -0.013543
     4  C   -0.069649  -0.007301
     5  H    0.078251   0.003450
     6  H    0.092856  -0.000902
     7  H    0.100334   0.001884
     8  O   -0.174163   0.059081
     9  O   -0.225812   0.421518
    10  H    0.220904  -0.080634
    11  C    0.048622  -0.204000
    12  C   -0.015604   0.332343
    13  C   -0.330563  -0.029895
    14  H    0.127117   0.016682
    15  H    0.118442   0.003090
    16  H    0.122883   0.010479
 Sum of Mulliken charges =  -0.00000   1.00000

 Dipole moment (field-independent basis, Debye):
    X=              2.0676    Y=             -0.7592    Z=             -1.6945  Tot=              2.7790
 Quadrupole moment (field-independent basis, Debye-Ang):
   XX=            -42.7252   YY=            -37.1259   ZZ=            -44.0518
   XY=             -1.8649   XZ=              3.8956   YZ=              0.8031

  Exact polarizability: 113.751  -0.263  90.203  -0.522  -2.836  52.451
 Approx polarizability: 108.357 -13.853  97.193  -2.065  -5.521  63.307

 ******    1 imaginary frequencies (negative Signs) ******

                      1                      2                      3
                      A                      A                      A
 Frequencies --  -1915.1972                31.2441                48.4006
 Red. masses --      1.1186                 1.0228                 3.4441
 Frc consts  --      2.4174                 0.0006                 0.0048
 IR Inten    --   2007.4592                 0.0647                 1.0631

                      4                      5                      6
                      A                      A                      A
 Frequencies --     53.3690               117.0940               165.1985
 Red. masses --      4.6064                 3.1274                 1.7241
 Frc consts  --      0.0077                 0.0253                 0.0277
 IR Inten    --      1.9030                 5.7666                 1.2731

                      7                      8                      9
                      A                      A                      A
 Frequencies --    205.7404               222.5420               305.8150
 Red. masses --      2.6310                 1.8471                 3.9935
 Frc consts  --      0.0656                 0.0539                 0.2200
 IR Inten    --      9.3297                 0.6267                 2.6704

                     10                     11                     12
                      A                      A                      A
 Frequencies --    373.3799               419.0043               469.5255
 Red. masses --      3.2800                 1.2656                 5.0164
 Frc consts  --      0.2694                 0.1309                 0.6516
 IR Inten    --      0.0610                 0.9928                 1.9310

                     13                     14                     15
                      A                      A                      A
 Frequencies --    484.8054               557.8131               760.0420
 Red. masses --      3.6727                 3.6292                 3.6234
 Frc consts  --      0.5086                 0.6653                 1.2332
 IR Inten    --      4.5468                 9.2981                 4.3648

                     16                     17                     18
                      A                      A                      A
 Frequencies --    929.6080              1042.5241              1050.3811
 Red. masses --      4.8086                 2.0723                 1.4717
 Frc consts  --      2.4483                 1.3270                 0.9567
 IR Inten    --     20.7194                34.9589                 7.9575

                     19                     20                     21
                      A                      A                      A
 Frequencies --   1055.7218              1067.9953              1079.6899
 Red. masses --      1.7656                 1.3991                 1.7575
 Frc consts  --      1.1594                 0.9402                 1.2071
 IR Inten    --     19.1101                 1.5057                11.6569

                     22                     23                     24
                      A                      A                      A
 Frequencies --   1161.1269              1173.9019              1214.3178
 Red. masses --      1.0474                 1.2468                 1.6050
 Frc consts  --      0.8320                 1.0123                 1.3944
 IR Inten    --     13.5558                 4.0516                 4.0641

                     25                     26                     27
                      A                      A                      A
 Frequencies --   1232.1333              1422.7094              1456.5021
 Red. masses --      3.7366                 1.2563                 1.1487
 Frc consts  --      3.3423                 1.4982                 1.4358
 IR Inten    --      3.3266                 6.0549                 5.2650

                     28                     29                     30
                      A                      A                      A
 Frequencies --   1462.5126              1478.9179              1485.5192
 Red. masses --      1.0596                 1.1270                 1.0952
 Frc consts  --      1.3353                 1.4524                 1.4240
 IR Inten    --     10.0061                 9.8144                 7.1750

                     31                     32                     33
                      A                      A                      A
 Frequencies --   1490.0655              1490.3012              1511.3259
 Red. masses --      1.0401                 1.0406                 1.0484
 Frc consts  --      1.3606                 1.3617                 1.4110
 IR Inten    --      8.5401                 4.3638                 8.4868

                     34                     35                     36
                      A                      A                      A
 Frequencies --   2284.5247              3045.3271              3048.5848
 Red. masses --     11.3224                 1.0280                 1.0340
 Frc consts  --     34.8160                 5.6172                 5.6619
 IR Inten    --     73.2133                40.1591                18.8671

                     37                     38                     39
                      A                      A                      A
 Frequencies --   3103.0531              3110.5114              3118.5803
 Red. masses --      1.0528                 1.1003                 1.1014
 Frc consts  --      5.9727                 6.2720                 6.3109
 IR Inten    --     11.4243                 6.5724                 7.2932

                     40                     41                     42
                      A                      A                      A
 Frequencies --   3125.5131              3147.9260              3178.7060
 Red. masses --      1.1067                 1.1051                 1.1112
 Frc consts  --      6.3696                 6.4524                 6.6151
 IR Inten    --     33.1224                13.6336                 2.5234

 - Thermochemistry -
 -------------------
 Temperature   298.150 Kelvin.  Pressure   1.00000 Atm.
 Atom     1 has atomic number  6 and mass  12.00000

 Molecular mass:   101.06025 amu.
 Principal axes and moments of inertia in atomic units:
                           1         2         3
     Eigenvalues --   551.856631185.406391581.81917
           X            0.99937  -0.02857   0.02126
           Y            0.02829   0.99951   0.01369
           Z           -0.02164  -0.01308   0.99968
 This molecule is an asymmetric top.
 Rotational symmetry number  1.
 Warning -- assumption of classical behavior for rotation
           may cause significant error
 Rotational temperatures (Kelvin)      0.15695     0.07307     0.05476
 Rotational constants (GHZ):           3.27031     1.52247     1.14093
    1 imaginary frequencies ignored.
 Zero-point vibrational energy     324080.1 (Joules/Mol)
                                   77.45699 (Kcal/Mol)
 Warning -- explicit consideration of  13 degrees of freedom as
           vibrations may cause significant error
 Vibrational temperatures:     44.95    69.64    76.79   168.47   237.68
          (Kelvin)            296.01   320.19   440.00   537.21   602.85
                              675.54   697.53   802.57  1093.53  1337.50
                             1499.96  1511.26  1518.95  1536.61  1553.43
                             1670.60  1688.98  1747.13  1772.77  2046.96
                             2095.58  2104.23  2127.83  2137.33  2143.87
                             2144.21  2174.46  3286.92  4381.55  4386.23
                             4464.60  4475.33  4486.94  4496.92  4529.16
                             4573.45

 Zero-point correction=                           0.123436 (Hartree/Particle)
 Thermal correction to Energy=                    0.133313
 Thermal correction to Enthalpy=                  0.134258
 Thermal correction to Gibbs Free Energy=         0.086340
 Sum of electronic and zero-point Energies=           -345.895457
 Sum of electronic and thermal Energies=              -345.885579
 Sum of electronic and thermal Enthalpies=            -345.884635
 Sum of electronic and thermal Free Energies=         -345.932553

                     E (Thermal)             CV                S
                      KCal/Mol        Cal/Mol-Kelvin    Cal/Mol-Kelvin
 Total                   83.655             31.962            100.851
 Electronic               0.000              0.000              1.377
 Translational            0.889              2.981             39.749
 Rotational               0.889              2.981             28.428
 Vibrational             81.878             26.000             31.297
 Vibration     1          0.594              1.983              5.749
 Vibration     2          0.595              1.978              4.882
 Vibration     3          0.596              1.976              4.688
 Vibration     4          0.608              1.935              3.148
 Vibration     5          0.624              1.885              2.489
 Vibration     6          0.640              1.832              2.081
 Vibration     7          0.648              1.807              1.938
 Vibration     8          0.696              1.663              1.385
 Vibration     9          0.745              1.527              1.066
 Vibration    10          0.782              1.429              0.895
 Vibration    11          0.827              1.318              0.739
 Vibration    12          0.841              1.284              0.697
 Vibration    13          0.913              1.123              0.528

 Optimization completed.
    -- Stationary point found.
 Normal termination of Gaussian 16 at Thu Jun  6 20:36:35 2019.
