 Gaussian 16, Revision B.01,
 Gaussian 16:  ES64L-G16RevB.01 20-Dec-2017

 ----------------------------------------------------------------------
 # opt=(calcfc,ts,noeigentest,maxcyc=500,modredundant) uB2PLYPD3/cc-pvt
 z scf=maxcyc=500 nosymm
 ----------------------------------------------------------------------

 -------------------
 Title Card Required
 -------------------
 Symbolic Z-matrix:
 Charge =  0 Multiplicity = 2

 SCF Done:  E(UB2PLYPD3) =  -306.339014273     A.U. after   22 cycles
 E2(B2PLYPD3) =    -0.3769965598D+00 E(B2PLYPD3) =    -0.30671601083271D+03
 E2(B2PLYPD3) =    -0.3769965598D+00 E(B2PLYPD3) =    -0.30671601083271D+03

  Exact polarizability: 105.330   9.119  76.505  -0.111   5.316  43.622
 Approx polarizability:  87.194  16.380  96.145  -1.931   8.651  52.509

 Optimization completed.
    -- Stationary point found.
 SCF Done:  E(UB2PLYPD3) =  -306.338587806     A.U. after   16 cycles
 E2(B2PLYPD3) =    -0.3771002143D+00 E(B2PLYPD3) =    -0.30671568802051D+03
 SCF Done:  E(UB2PLYPD3) =  -306.339057044     A.U. after   15 cycles
 E2(B2PLYPD3) =    -0.3767957271D+00 E(B2PLYPD3) =    -0.30671585277117D+03
 SCF Done:  E(UB2PLYPD3) =  -306.338941951     A.U. after   13 cycles
 E2(B2PLYPD3) =    -0.3769293842D+00 E(B2PLYPD3) =    -0.30671587133482D+03
 SCF Done:  E(UB2PLYPD3) =  -306.338919304     A.U. after   11 cycles
 E2(B2PLYPD3) =    -0.3769529044D+00 E(B2PLYPD3) =    -0.30671587220837D+03
 SCF Done:  E(UB2PLYPD3) =  -306.338919024     A.U. after    9 cycles
 E2(B2PLYPD3) =    -0.3769531172D+00 E(B2PLYPD3) =    -0.30671587214069D+03
 Optimization completed.
 SCF Done:  E(UB2PLYPD3) =  -306.338315606     A.U. after   16 cycles
 E2(B2PLYPD3) =    -0.3769515726D+00 E(B2PLYPD3) =    -0.30671526717881D+03
 SCF Done:  E(UB2PLYPD3) =  -306.338823107     A.U. after   16 cycles
 E2(B2PLYPD3) =    -0.3766168252D+00 E(B2PLYPD3) =    -0.30671543993266D+03
 SCF Done:  E(UB2PLYPD3) =  -306.338674974     A.U. after   13 cycles
 E2(B2PLYPD3) =    -0.3767880379D+00 E(B2PLYPD3) =    -0.30671546301150D+03
 SCF Done:  E(UB2PLYPD3) =  -306.338658929     A.U. after   12 cycles
 E2(B2PLYPD3) =    -0.3768054185D+00 E(B2PLYPD3) =    -0.30671546434793D+03
 E2(B2PLYPD3) =    -0.3768015116D+00 E(B2PLYPD3) =    -0.30671546429133D+03
 E2(B2PLYPD3) =    -0.3768027534D+00 E(B2PLYPD3) =    -0.30671546427113D+03
 E2(B2PLYPD3) =    -0.3767035486D+00 E(B2PLYPD3) =    -0.30671464356965D+03
 E2(B2PLYPD3) =    -0.3763570336D+00 E(B2PLYPD3) =    -0.30671480105535D+03
 E2(B2PLYPD3) =    -0.3764899753D+00 E(B2PLYPD3) =    -0.30671481949358D+03
 E2(B2PLYPD3) =    -0.3765267541D+00 E(B2PLYPD3) =    -0.30671482049815D+03
 E2(B2PLYPD3) =    -0.3763565483D+00 E(B2PLYPD3) =    -0.30671388342965D+03
 E2(B2PLYPD3) =    -0.3759835709D+00 E(B2PLYPD3) =    -0.30671401832731D+03
 E2(B2PLYPD3) =    -0.3760352561D+00 E(B2PLYPD3) =    -0.30671402538828D+03
 E2(B2PLYPD3) =    -0.3758372678D+00 E(B2PLYPD3) =    -0.30671427686554D+03
 E2(B2PLYPD3) =    -0.3760976809D+00 E(B2PLYPD3) =    -0.30671487223579D+03
 E2(B2PLYPD3) =    -0.3763545542D+00 E(B2PLYPD3) =    -0.30671492047459D+03
 E2(B2PLYPD3) =    -0.3762947414D+00 E(B2PLYPD3) =    -0.30671492241993D+03
 E2(B2PLYPD3) =    -0.3763075904D+00 E(B2PLYPD3) =    -0.30671492243587D+03
 E2(B2PLYPD3) =    -0.3763066650D+00 E(B2PLYPD3) =    -0.30671492247809D+03
 E2(B2PLYPD3) =    -0.3766069352D+00 E(B2PLYPD3) =    -0.30671543711428D+03
 E2(B2PLYPD3) =    -0.3766380518D+00 E(B2PLYPD3) =    -0.30671548990103D+03
 E2(B2PLYPD3) =    -0.3766984258D+00 E(B2PLYPD3) =    -0.30671549110998D+03
 E2(B2PLYPD3) =    -0.3766818984D+00 E(B2PLYPD3) =    -0.30671549131538D+03
 SCF Done:  E(UB2PLYPD3) =  -306.338822384     A.U. after   16 cycles
 E2(B2PLYPD3) =    -0.3769651675D+00 E(B2PLYPD3) =    -0.30671578755172D+03
 SCF Done:  E(UB2PLYPD3) =  -306.339063471     A.U. after   15 cycles
 E2(B2PLYPD3) =    -0.3768051468D+00 E(B2PLYPD3) =    -0.30671586861730D+03
 SCF Done:  E(UB2PLYPD3) =  -306.338964352     A.U. after   13 cycles
 E2(B2PLYPD3) =    -0.3769122009D+00 E(B2PLYPD3) =    -0.30671587655334D+03
 SCF Done:  E(UB2PLYPD3) =  -306.338968005     A.U. after   11 cycles
 E2(B2PLYPD3) =    -0.3769087183D+00 E(B2PLYPD3) =    -0.30671587672333D+03
 SCF Done:  E(UB2PLYPD3) =  -306.338964973     A.U. after    9 cycles
 E2(B2PLYPD3) =    -0.3769116589D+00 E(B2PLYPD3) =    -0.30671587663200D+03
    -- Stationary point found.
 SCF Done:  E(UB2PLYPD3) =  -306.338746923     A.U. after   16 cycles
 E2(B2PLYPD3) =    -0.3771212809D+00 E(B2PLYPD3) =    -0.30671586820377D+03
 SCF Done:  E(UB2PLYPD3) =  -306.339159013     A.U. after   15 cycles
 E2(B2PLYPD3) =    -0.3768333793D+00 E(B2PLYPD3) =    -0.30671599239213D+03
 SCF Done:  E(UB2PLYPD3) =  -306.339026263     A.U. after   14 cycles
 E2(B2PLYPD3) =    -0.3769855536D+00 E(B2PLYPD3) =    -0.30671601181626D+03
 SCF Done:  E(UB2PLYPD3) =  -306.339022149     A.U. after   11 cycles
 E2(B2PLYPD3) =    -0.3769901992D+00 E(B2PLYPD3) =    -0.30671601234783D+03
 SCF Done:  E(UB2PLYPD3) =  -306.339016620     A.U. after   10 cycles
 E2(B2PLYPD3) =    -0.3769957339D+00 E(B2PLYPD3) =    -0.30671601235387D+03
 Optimization completed.
    -- Stationary point found.

                          Input orientation:
 ---------------------------------------------------------------------
 Center     Atomic      Atomic             Coordinates (Angstroms)
 Number     Number       Type             X           Y           Z
 ---------------------------------------------------------------------
      1          6           0       -1.089773   -1.372453   -0.865702
      2          1           0       -1.362952   -1.937757   -1.738111
      3          6           0        1.681690    0.490824    0.490602
      4          1           0        1.131634    0.776879   -0.405081
      5          1           0        1.617931    1.275389    1.240896
      6          1           0        2.720479    0.283952    0.241508
      7          8           0        1.084500   -0.655984    1.093068
      8          8           0        1.165597   -1.708334    0.189290
      9          1           0        0.117223   -1.645898   -0.367574
     10          6           0       -1.641254   -0.484790   -0.149680
     11          6           0       -2.091065    0.441611    0.685100
     12          1           0       -1.943341    1.492805    0.482322
     13          1           0       -2.636513    0.167625    1.576487
 ---------------------------------------------------------------------

 Alpha  occ. eigenvalues --  -19.79598 -19.78847 -10.66173 -10.64914 -10.64680
 Alpha  occ. eigenvalues --  -10.64032  -1.28721  -1.01857  -0.92658  -0.83406
 Alpha  occ. eigenvalues --   -0.77850  -0.63164  -0.60720  -0.56369  -0.55239
 Alpha  occ. eigenvalues --   -0.55010  -0.53265  -0.50656  -0.44701  -0.41853
 Alpha  occ. eigenvalues --   -0.36985  -0.36192  -0.33555  -0.29643
 Alpha virt. eigenvalues --    0.06495   0.06582   0.08030   0.11298   0.12107
 Alpha virt. eigenvalues --    0.13769   0.14900   0.15473   0.16890   0.19603
 Alpha virt. eigenvalues --    0.23734   0.25560   0.28054   0.30483   0.32148

  Beta  occ. eigenvalues --  -19.79254 -19.77260 -10.66189 -10.65336 -10.64025
  Beta  occ. eigenvalues --  -10.62965  -1.26648  -0.98900  -0.92010  -0.80701
  Beta  occ. eigenvalues --   -0.77322  -0.61521  -0.58133  -0.55209  -0.54754
  Beta  occ. eigenvalues --   -0.54399  -0.52993  -0.48185  -0.43861  -0.37411
  Beta  occ. eigenvalues --   -0.35728  -0.32978  -0.31215
  Beta virt. eigenvalues --   -0.07392   0.06633   0.07641   0.08605   0.11603
  Beta virt. eigenvalues --    0.12640   0.14321   0.14989   0.15644   0.16944
  Beta virt. eigenvalues --    0.20395   0.23730   0.25981   0.28465   0.31064

 Mulliken charges and spin densities:
               1          2
     1  C   -0.322673   0.504944
     2  H    0.175621   0.001590
     3  C   -0.073237  -0.007838
     4  H    0.081639   0.002968
     5  H    0.095352  -0.000898
     6  H    0.103459   0.002378
     7  O   -0.169507   0.068130
     8  O   -0.215608   0.417454
     9  H    0.227831  -0.086801
    10  C    0.102575  -0.366040
    11  C   -0.294147   0.515785
    12  H    0.142732  -0.025590
    13  H    0.145964  -0.026082
 Sum of Mulliken charges =  -0.00000   1.00000

 Dipole moment (field-independent basis, Debye):
    X=             -1.0366    Y=              2.2298    Z=             -0.7923  Tot=              2.5835
 Quadrupole moment (field-independent basis, Debye-Ang):
   XX=            -34.9950   YY=            -37.0222   ZZ=            -36.1371
   XY=              3.1398   XZ=             -1.4885   YZ=              4.3115

 1\1\GINC-N190\Scan\UB2PLYPD3-FC\CC-pVTZ\C4H7O2(2)\ROOT\19-Jun-2019\0\\
 # opt=(calcfc,ts,noeigentest,maxcyc=500,modredundant) uB2PLYPD3/cc-pvt
 z scf=maxcyc=500 nosymm\\Title Card Required\\0,2\C,-1.0897725406,-1.3
 724530455,-0.8657021451\H,-1.3629521222,-1.9377569405,-1.7381111659\C,
 1.6816899214,0.490824302,0.4906015027\H,1.1316344448,0.7768790664,-0.4
 050806002\H,1.6179311889,1.2753892667,1.2408961252\H,2.7204792558,0.28
 39519254,0.2415079585\O,1.0845003032,-0.6559838225,1.0930683953\O,1.16
 55974929,-1.7083335441,0.1892903352\H,0.1172229699,-1.6458981748,-0.36

 Normal termination of Gaussian 16 at Wed Jun 19 13:36:39 2019.
