 Gaussian 16, Revision B.01,
 Gaussian 16:  ES64L-G16RevB.01 20-Dec-2017

 ----------------------------------------------------------------------
 # opt=(calcfc,ts,noeigentest,maxcyc=500) freq=noraman uB2PLYPD3/cc-pvt
 z
 ----------------------------------------------------------------------

 -------------------
 Title Card Required
 -------------------
 Symbolic Z-matrix:
 Charge =  0 Multiplicity = 2

 SCF Done:  E(UB2PLYPD3) =  -306.338984400     A.U. after   22 cycles
 E2(B2PLYPD3) =    -0.3764560711D+00 E(B2PLYPD3) =    -0.30671544047069D+03
 E2(B2PLYPD3) =    -0.3764560711D+00 E(B2PLYPD3) =    -0.30671544047069D+03
 SCF Done:  E(UB2PLYPD3) =  -306.339002184     A.U. after   17 cycles
 E2(B2PLYPD3) =    -0.3770013852D+00 E(B2PLYPD3) =    -0.30671600356910D+03
 SCF Done:  E(UB2PLYPD3) =  -306.338998684     A.U. after   12 cycles
 E2(B2PLYPD3) =    -0.3770116672D+00 E(B2PLYPD3) =    -0.30671601035137D+03
 SCF Done:  E(UB2PLYPD3) =  -306.339014265     A.U. after   11 cycles
 E2(B2PLYPD3) =    -0.3769965423D+00 E(B2PLYPD3) =    -0.30671601080758D+03
 Optimization completed.
    -- Stationary point found.
 Normal termination of Gaussian 16 at Fri Jun  7 06:30:55 2019.

 ----------------------------------------------------------------------
 #N Geom=AllCheck Guess=TCheck SCRF=Check GenChk UB2PLYPD3(FC)/CC-pVTZ
 Freq
 ----------------------------------------------------------------------

 Structure from the checkpoint file:  "/localscratch/341085/Gau-82313.chk"
 -------------------
 Title Card Required
 -------------------
 Charge =  0 Multiplicity = 2

                         Standard orientation:
 ---------------------------------------------------------------------
 Center     Atomic      Atomic             Coordinates (Angstroms)
 Number     Number       Type             X           Y           Z
 ---------------------------------------------------------------------
      1          6           0       -1.172857    1.272235    0.384834
      2          1           0       -1.542596    2.183340    0.818972
      3          6           0        1.665250   -0.943178    0.556050
      4          1           0        0.972010   -0.771778    1.378650
      5          1           0        1.672644   -1.994973    0.279961
      6          1           0        2.664414   -0.614190    0.834187
      7          8           0        1.228554   -0.250246   -0.611816
      8          8           0        1.230139    1.110616   -0.330668
      9          1           0        0.108204    1.299864    0.013586
     10          6           0       -1.658085    0.134294    0.112054
     11          6           0       -2.027308   -1.092644   -0.228086
     12          1           0       -1.968645   -1.907860    0.478974
     13          1           0       -2.417566   -1.301610   -1.213572
 ---------------------------------------------------------------------

 SCF Done:  E(UB2PLYPD3) =  -306.339014265     A.U. after    1 cycles
 E2(B2PLYPD3) =    -0.3769965557D+00 E(B2PLYPD3) =    -0.30671601082099D+03
 E2(B2PLYPD3) =    -0.3769965557D+00 E(B2PLYPD3) =    -0.30671601082099D+03

 The electronic state is 2-A.
 Alpha  occ. eigenvalues --  -19.79597 -19.78848 -10.66173 -10.64915 -10.64681
 Alpha  occ. eigenvalues --  -10.64033  -1.28717  -1.01858  -0.92659  -0.83407
 Alpha  occ. eigenvalues --   -0.77850  -0.63164  -0.60719  -0.56369  -0.55239
 Alpha  occ. eigenvalues --   -0.55009  -0.53265  -0.50656  -0.44700  -0.41853
 Alpha  occ. eigenvalues --   -0.36986  -0.36192  -0.33556  -0.29644
 Alpha virt. eigenvalues --    0.06494   0.06581   0.08029   0.11298   0.12106
 Alpha virt. eigenvalues --    0.13767   0.14899   0.15473   0.16892   0.19602
 Alpha virt. eigenvalues --    0.23736   0.25560   0.28053   0.30482   0.32146

  Beta  occ. eigenvalues --  -19.79254 -19.77261 -10.66189 -10.65336 -10.64025
  Beta  occ. eigenvalues --  -10.62965  -1.26645  -0.98901  -0.92010  -0.80701
  Beta  occ. eigenvalues --   -0.77322  -0.61522  -0.58132  -0.55209  -0.54753
  Beta  occ. eigenvalues --   -0.54398  -0.52993  -0.48184  -0.43860  -0.37412
  Beta  occ. eigenvalues --   -0.35729  -0.32979  -0.31215
  Beta virt. eigenvalues --   -0.07393   0.06633   0.07641   0.08604   0.11603
  Beta virt. eigenvalues --    0.12640   0.14320   0.14988   0.15644   0.16946
  Beta virt. eigenvalues --    0.20394   0.23732   0.25980   0.28464   0.31064

 Mulliken charges and spin densities:
               1          2
     1  C   -0.322623   0.504977
     2  H    0.175619   0.001590
     3  C   -0.073215  -0.007837
     4  H    0.081625   0.002969
     5  H    0.095352  -0.000897
     6  H    0.103451   0.002373
     7  O   -0.169528   0.068090
     8  O   -0.215610   0.417473
     9  H    0.227835  -0.086797
    10  C    0.102546  -0.366052
    11  C   -0.294151   0.515783
    12  H    0.142727  -0.025589
    13  H    0.145971  -0.026083
 Sum of Mulliken charges =  -0.00000   1.00000

 Dipole moment (field-independent basis, Debye):
    X=             -1.2637    Y=             -1.5886    Z=              1.5990  Tot=              2.5841
 Quadrupole moment (field-independent basis, Debye-Ang):
   XX=            -35.7691   YY=            -32.2365   ZZ=            -37.5076
   XY=             -1.9955   XZ=              2.7503   YZ=              1.0910

  Exact polarizability: 105.330   9.119  76.505  -0.111   5.316  43.622
 Approx polarizability:  87.194  16.380  96.145  -1.931   8.651  52.509

 ******    1 imaginary frequencies (negative Signs) ******

                      1                      2                      3
                      A                      A                      A
 Frequencies --  -1962.2587                64.7030                77.4663
 Red. masses --      1.1421                 3.3935                 3.7488
 Frc consts  --      2.5909                 0.0084                 0.0133
 IR Inten    --   2694.1267                 0.8376                 1.3696

                      4                      5                      6
                      A                      A                      A
 Frequencies --    125.7857               191.4735               272.2344
 Red. masses --      2.8983                 1.3095                 3.0999
 Frc consts  --      0.0270                 0.0283                 0.1354
 IR Inten    --      5.7322                 2.4186                 0.8158

                      7                      8                      9
                      A                      A                      A
 Frequencies --    310.8892               376.0735               475.7054
 Red. masses --      1.1555                 2.7250                 3.6881
 Frc consts  --      0.0658                 0.2271                 0.4917
 IR Inten    --      4.7664                 2.5586                 3.7138

                     10                     11                     12
                      A                      A                      A
 Frequencies --    499.4818               585.5967               689.0124
 Red. masses --      6.1944                 3.0791                 1.0750
 Frc consts  --      0.9105                 0.6221                 0.3007
 IR Inten    --      3.8743                10.0312                13.0197

                     13                     14                     15
                      A                      A                      A
 Frequencies --    847.5166               889.7322               927.3501
 Red. masses --      1.3261                 1.1340                 3.4382
 Frc consts  --      0.5612                 0.5289                 1.7421
 IR Inten    --     39.7286                45.6712                29.5012

                     16                     17                     18
                      A                      A                      A
 Frequencies --    966.2331              1039.0445              1061.9768
 Red. masses --      1.5902                 1.4799                 7.5451
 Frc consts  --      0.8747                 0.9414                 5.0135
 IR Inten    --     23.0768                 1.3721                67.7984

                     19                     20                     21
                      A                      A                      A
 Frequencies --   1165.4370              1173.1583              1214.1600
 Red. masses --      2.4012                 1.4427                 1.5600
 Frc consts  --      1.9215                 1.1699                 1.3550
 IR Inten    --      2.1318                 2.8261                 3.1767

                     22                     23                     24
                      A                      A                      A
 Frequencies --   1454.9466              1472.7474              1482.1489
 Red. masses --      1.1496                 1.1273                 1.0665
 Frc consts  --      1.4338                 1.4406                 1.3804
 IR Inten    --      8.5297                15.9028                 6.2736

                     25                     26                     27
                      A                      A                      A
 Frequencies --   1497.5714              1514.5829              1984.5707
 Red. masses --      1.1664                 1.0549                 6.6230
 Frc consts  --      1.5413                 1.4258                15.3687
 IR Inten    --      9.6754                 8.5480                52.6887

                     28                     29                     30
                      A                      A                      A
 Frequencies --   3048.1442              3129.4035              3153.5821
 Red. masses --      1.0280                 1.1067                 1.1052
 Frc consts  --      5.6276                 6.3856                 6.4759
 IR Inten    --     38.4505                30.0100                10.7318

                     31                     32                     33
                      A                      A                      A
 Frequencies --   3158.0067              3244.7376              3281.2752
 Red. masses --      1.0542                 1.1167                 1.1066
 Frc consts  --      6.1943                 6.9268                 7.0201
 IR Inten    --      1.8425                 0.2109                10.8776

 - Thermochemistry -
 -------------------
 Temperature   298.150 Kelvin.  Pressure   1.00000 Atm.
 Atom     1 has atomic number  6 and mass  12.00000

 Molecular mass:    87.04460 amu.
 Principal axes and moments of inertia in atomic units:
                           1         2         3
     Eigenvalues --   360.65856 794.967801020.71099
           X            0.99954  -0.01664   0.02542
           Y            0.01657   0.99986   0.00302
           Z           -0.02547  -0.00260   0.99967
 This molecule is an asymmetric top.
 Rotational symmetry number  1.
 Rotational temperatures (Kelvin)      0.24015     0.10895     0.08486
 Rotational constants (GHZ):           5.00402     2.27021     1.76812
    1 imaginary frequencies ignored.
 Zero-point vibrational energy     247475.9 (Joules/Mol)
                                   59.14817 (Kcal/Mol)
 Warning -- explicit consideration of  10 degrees of freedom as
           vibrations may cause significant error
 Vibrational temperatures:     93.09   111.46   180.98   275.49   391.68
          (Kelvin)            447.30   541.09   684.43   718.64   842.54
                              991.34  1219.39  1280.13  1334.25  1390.19
                             1494.95  1527.95  1676.80  1687.91  1746.91
                             2093.34  2118.95  2132.48  2154.67  2179.15
                             2855.35  4385.60  4502.51  4537.30  4543.67
                             4668.45  4721.02

 Zero-point correction=                           0.094259 (Hartree/Particle)
 Thermal correction to Energy=                    0.102237
 Thermal correction to Enthalpy=                  0.103181
 Thermal correction to Gibbs Free Energy=         0.061175
 Sum of electronic and zero-point Energies=           -306.621752
 Sum of electronic and thermal Energies=              -306.613774
 Sum of electronic and thermal Enthalpies=            -306.612829
 Sum of electronic and thermal Free Energies=         -306.654836

                     E (Thermal)             CV                S
                      KCal/Mol        Cal/Mol-Kelvin    Cal/Mol-Kelvin
 Total                   64.155             26.719             88.410
 Electronic               0.000              0.000              1.377
 Translational            0.889              2.981             39.304
 Rotational               0.889              2.981             27.173
 Vibrational             62.377             20.758             20.555
 Vibration     1          0.597              1.971              4.308
 Vibration     2          0.599              1.964              3.954
 Vibration     3          0.611              1.927              3.009
 Vibration     4          0.634              1.852              2.214
 Vibration     5          0.675              1.724              1.582
 Vibration     6          0.700              1.653              1.358
 Vibration     7          0.747              1.521              1.055
 Vibration     8          0.832              1.304              0.722
 Vibration     9          0.855              1.251              0.659
 Vibration    10          0.943              1.063              0.475

 Optimization completed.
    -- Stationary point found.
 Normal termination of Gaussian 16 at Fri Jun  7 07:09:25 2019.
