 Gaussian 16, Revision B.01,
 Gaussian 16:  ES64L-G16RevB.01 20-Dec-2017

 ----------------------------------------------------------------------
 # opt=(calcfc,ts,noeigentest,maxcyc=500) freq=noraman uB2PLYPD3/cc-pvt
 z
 ----------------------------------------------------------------------

 -------------------
 Title Card Required
 -------------------
 Symbolic Z-matrix:
 Charge =  0 Multiplicity = 2

 SCF Done:  E(UB2PLYPD3) =  -268.326186495     A.U. after   22 cycles
 E2(B2PLYPD3) =    -0.3251113979D+00 E(B2PLYPD3) =    -0.26865129789238D+03
 E2(B2PLYPD3) =    -0.3251113979D+00 E(B2PLYPD3) =    -0.26865129789238D+03
 SCF Done:  E(UB2PLYPD3) =  -268.326354410     A.U. after   16 cycles
 E2(B2PLYPD3) =    -0.3254769259D+00 E(B2PLYPD3) =    -0.26865183133551D+03
 SCF Done:  E(UB2PLYPD3) =  -268.326334772     A.U. after   11 cycles
 E2(B2PLYPD3) =    -0.3255035686D+00 E(B2PLYPD3) =    -0.26865183834061D+03
 SCF Done:  E(UB2PLYPD3) =  -268.326337720     A.U. after   10 cycles
 E2(B2PLYPD3) =    -0.3255007172D+00 E(B2PLYPD3) =    -0.26865183843736D+03
 Optimization completed.
    -- Stationary point found.
 Normal termination of Gaussian 16 at Wed Jun  5 15:22:41 2019.

 ----------------------------------------------------------------------
 #N Geom=AllCheck Guess=TCheck SCRF=Check GenChk UB2PLYPD3(FC)/CC-pVTZ
 Freq
 ----------------------------------------------------------------------

 Structure from the checkpoint file:  "/localscratch/341085/Gau-13312.chk"
 -------------------
 Title Card Required
 -------------------
 Charge =  0 Multiplicity = 2

                         Standard orientation:
 ---------------------------------------------------------------------
 Center     Atomic      Atomic             Coordinates (Angstroms)
 Number     Number       Type             X           Y           Z
 ---------------------------------------------------------------------
      1          6           0       -1.769822    0.406086    0.381783
      2          6           0       -1.968465   -0.726850   -0.241802
      3          1           0       -2.909370   -1.264770   -0.161272
      4          1           0       -2.379475    1.011803    1.035020
      5          1           0       -1.197877   -1.164180   -0.866154
      6          6           0        1.705258   -0.711800    0.467093
      7          1           0        0.952999   -0.992660    1.205393
      8          1           0        2.150188   -1.603506    0.030010
      9          1           0        2.473638   -0.097438    0.932698
     10          8           0        1.108066   -0.022773   -0.623075
     11          8           0        0.587004    1.193644   -0.120143
     12          1           0       -0.452498    0.939175    0.127604
 ---------------------------------------------------------------------

 SCF Done:  E(UB2PLYPD3) =  -268.326337720     A.U. after    1 cycles
 E2(B2PLYPD3) =    -0.3255007245D+00 E(B2PLYPD3) =    -0.26865183844468D+03
 E2(B2PLYPD3) =    -0.3255007245D+00 E(B2PLYPD3) =    -0.26865183844468D+03

 The electronic state is 2-A.
 Alpha  occ. eigenvalues --  -19.78762 -19.78447 -10.66018 -10.65705 -10.63302
 Alpha  occ. eigenvalues --   -1.27423  -1.02719  -0.90556  -0.77834  -0.68904
 Alpha  occ. eigenvalues --   -0.62149  -0.56073  -0.54741  -0.54355  -0.51365
 Alpha  occ. eigenvalues --   -0.49045  -0.44052  -0.37776  -0.37271  -0.34738
 Alpha  occ. eigenvalues --   -0.31211
 Alpha virt. eigenvalues --    0.04591   0.08948   0.10167   0.11132   0.13366
 Alpha virt. eigenvalues --    0.14783   0.16329   0.16867   0.19668   0.25595
 Alpha virt. eigenvalues --    0.28194   0.29851   0.31691   0.34798   0.35354

  Beta  occ. eigenvalues --  -19.78646 -19.77149 -10.66024 -10.64090 -10.63552
  Beta  occ. eigenvalues --   -1.25862  -1.00374  -0.88442  -0.77507  -0.66021
  Beta  occ. eigenvalues --   -0.58920  -0.55144  -0.54242  -0.53195  -0.49756
  Beta  occ. eigenvalues --   -0.46161  -0.43429  -0.36279  -0.34337  -0.33871
  Beta virt. eigenvalues --   -0.05676   0.05513   0.09027   0.10514   0.11478
  Beta virt. eigenvalues --    0.13932   0.14892   0.16417   0.17071   0.20238
  Beta virt. eigenvalues --    0.26162   0.28583   0.30675   0.31782   0.35360

 Mulliken charges and spin densities:
               1          2
     1  C   -0.212596   0.786376
     2  C   -0.263864  -0.170622
     3  H    0.140355   0.060693
     4  H    0.162824   0.024960
     5  H    0.164168   0.028279
     6  C   -0.064875  -0.002396
     7  H    0.074616  -0.000137
     8  H    0.094858  -0.000598
     9  H    0.098655   0.001586
    10  O   -0.194200   0.020246
    11  O   -0.227403   0.327324
    12  H    0.227460  -0.075710
 Sum of Mulliken charges =   0.00000   1.00000

 Dipole moment (field-independent basis, Debye):
    X=             -1.2992    Y=             -1.7771    Z=              1.5402  Tot=              2.6867
 Quadrupole moment (field-independent basis, Debye-Ang):
   XX=            -26.2985   YY=            -31.1046   ZZ=            -32.5771
   XY=             -2.2440   XZ=              0.4933   YZ=              1.8242

  Exact polarizability:  77.756   2.410  51.788  -2.490   5.687  38.843
 Approx polarizability:  62.714   1.811  62.633  -3.880   8.870  46.755

 ******    1 imaginary frequencies (negative Signs) ******

                      1                      2                      3
                      A                      A                      A
 Frequencies --  -1425.1379                83.8368                94.5278
 Red. masses --      1.1950                 2.6717                 2.8332
 Frc consts  --      1.4300                 0.0111                 0.0149
 IR Inten    --   1375.8920                 1.0814                 2.2411

                      4                      5                      6
                      A                      A                      A
 Frequencies --    130.0452               216.8824               313.5500
 Red. masses --      2.5345                 1.2488                 2.0216
 Frc consts  --      0.0253                 0.0346                 0.1171
 IR Inten    --      3.8436                 1.6259                 0.2120

                      7                      8                      9
                      A                      A                      A
 Frequencies --    337.9267               466.2583               626.3473
 Red. masses --      1.5074                 3.5896                 2.8604
 Frc consts  --      0.1014                 0.4598                 0.6612
 IR Inten    --      6.7495                 4.5333                50.9571

                     10                     11                     12
                      A                      A                      A
 Frequencies --    755.7567               835.0246               875.6399
 Red. masses --      1.0545                 1.1607                 1.2508
 Frc consts  --      0.3549                 0.4768                 0.5651
 IR Inten    --     12.6994                11.2186                30.1182

                     13                     14                     15
                      A                      A                      A
 Frequencies --    917.4037               966.0570              1058.0511
 Red. masses --      4.3618                 1.2280                 6.7216
 Frc consts  --      2.1629                 0.6752                 4.4334
 IR Inten    --     14.8246                64.1905                19.4706

                     16                     17                     18
                      A                      A                      A
 Frequencies --   1179.5521              1197.9094              1223.2858
 Red. masses --      1.2697                 1.5771                 1.5924
 Frc consts  --      1.0409                 1.3334                 1.4040
 IR Inten    --      1.8512                 4.3105                 4.4936

                     19                     20                     21
                      A                      A                      A
 Frequencies --   1402.0525              1458.4920              1480.8787
 Red. masses --      1.1120                 1.1459                 1.0514
 Frc consts  --      1.2879                 1.4361                 1.3585
 IR Inten    --     11.9167                 2.7829                 9.1067

                     22                     23                     24
                      A                      A                      A
 Frequencies --   1488.9606              1519.8373              1681.6750
 Red. masses --      1.0727                 1.0515                 4.8775
 Frc consts  --      1.4012                 1.4311                 8.1270
 IR Inten    --     12.6472                 9.3567                 4.9265

                     25                     26                     27
                      A                      A                      A
 Frequencies --   3039.1983              3099.8420              3117.9039
 Red. masses --      1.0299                 1.0575                 1.1046
 Frc consts  --      5.6047                 5.9872                 6.3267
 IR Inten    --     33.3484                 2.5102                36.9730

                     28                     29                     30
                      A                      A                      A
 Frequencies --   3145.3168              3188.8353              3227.5856
 Red. masses --      1.1051                 1.1094                 1.1020
 Frc consts  --      6.4414                 6.6465                 6.7635
 IR Inten    --     14.5386                 0.6210                 0.3596

 - Thermochemistry -
 -------------------
 Temperature   298.150 Kelvin.  Pressure   1.00000 Atm.
 Atom     1 has atomic number  6 and mass  12.00000

 Molecular mass:    75.04460 amu.
 Principal axes and moments of inertia in atomic units:
                           1         2         3
     Eigenvalues --   218.32258 669.26515 776.20771
           X            0.99971  -0.01891   0.01519
           Y            0.01845   0.99937   0.03017
           Z           -0.01575  -0.02988   0.99943
 This molecule is an asymmetric top.
 Rotational symmetry number  1.
 Rotational temperatures (Kelvin)      0.39672     0.12942     0.11159
 Rotational constants (GHZ):           8.26640     2.69660     2.32508
    1 imaginary frequencies ignored.
 Zero-point vibrational energy     234041.2 (Joules/Mol)
                                   55.93719 (Kcal/Mol)
 Warning -- explicit consideration of   7 degrees of freedom as
           vibrations may cause significant error
 Vibrational temperatures:    120.62   136.00   187.11   312.05   451.13
          (Kelvin)            486.20   670.84   901.17  1087.37  1201.41
                             1259.85  1319.94  1389.94  1522.30  1697.11
                             1723.52  1760.04  2017.24  2098.44  2130.65
                             2142.28  2186.71  2419.56  4372.73  4459.98
                             4485.97  4525.41  4588.02  4643.78

 Zero-point correction=                           0.089142 (Hartree/Particle)
 Thermal correction to Energy=                    0.096296
 Thermal correction to Enthalpy=                  0.097241
 Thermal correction to Gibbs Free Energy=         0.057532
 Sum of electronic and zero-point Energies=           -268.562697
 Sum of electronic and thermal Energies=              -268.555542
 Sum of electronic and thermal Enthalpies=            -268.554598
 Sum of electronic and thermal Free Energies=         -268.594306

                     E (Thermal)             CV                S
                      KCal/Mol        Cal/Mol-Kelvin    Cal/Mol-Kelvin
 Total                   60.427             23.303             83.574
 Electronic               0.000              0.000              1.377
 Translational            0.889              2.981             38.862
 Rotational               0.889              2.981             26.231
 Vibrational             58.649             17.341             17.103
 Vibration     1          0.601              1.960              3.799
 Vibration     2          0.603              1.953              3.564
 Vibration     3          0.612              1.923              2.945
 Vibration     4          0.646              1.815              1.985
 Vibration     5          0.701              1.648              1.344
 Vibration     6          0.718              1.600              1.222
 Vibration     7          0.824              1.325              0.748

 Optimization completed.
    -- Stationary point found.
 Normal termination of Gaussian 16 at Wed Jun  5 15:45:44 2019.
