 Gaussian 16, Revision B.01,
 Gaussian 16:  ES64L-G16RevB.01 20-Dec-2017

 ----------------------------------------------------------------------
 # opt=(calcfc,ts,noeigentest,maxcyc=500) freq=noraman uB2PLYPD3/cc-pvt
 z
 ----------------------------------------------------------------------

 -------------------
 Title Card Required
 -------------------
 Symbolic Z-matrix:
 Charge =  0 Multiplicity = 2

 SCF Done:  E(UB2PLYPD3) =  -307.569075147     A.U. after   22 cycles
 E2(B2PLYPD3) =    -0.3827473977D+00 E(B2PLYPD3) =    -0.30795182254448D+03
 E2(B2PLYPD3) =    -0.3827473977D+00 E(B2PLYPD3) =    -0.30795182254448D+03
 SCF Done:  E(UB2PLYPD3) =  -307.569208436     A.U. after   17 cycles
 E2(B2PLYPD3) =    -0.3830993540D+00 E(B2PLYPD3) =    -0.30795230778958D+03
 SCF Done:  E(UB2PLYPD3) =  -307.569194349     A.U. after   12 cycles
 E2(B2PLYPD3) =    -0.3831203303D+00 E(B2PLYPD3) =    -0.30795231467960D+03
 SCF Done:  E(UB2PLYPD3) =  -307.569199357     A.U. after   10 cycles
 E2(B2PLYPD3) =    -0.3831155139D+00 E(B2PLYPD3) =    -0.30795231487091D+03
 Optimization completed.
    -- Stationary point found.
 Normal termination of Gaussian 16 at Fri Jun  7 12:36:00 2019.

 ----------------------------------------------------------------------
 #N Geom=AllCheck Guess=TCheck SCRF=Check GenChk UB2PLYPD3(FC)/CC-pVTZ
 Freq
 ----------------------------------------------------------------------

 Structure from the checkpoint file:  "/localscratch/341085/Gau-41585.chk"
 -------------------
 Title Card Required
 -------------------
 Charge =  0 Multiplicity = 2

                         Standard orientation:
 ---------------------------------------------------------------------
 Center     Atomic      Atomic             Coordinates (Angstroms)
 Number     Number       Type             X           Y           Z
 ---------------------------------------------------------------------
      1          6           0        1.348892    0.146197   -0.065062
      2          6           0        1.170291    1.433505   -0.249675
      3          6           0       -2.210033    0.198693    0.783619
      4          1           0       -1.404488    0.463209    1.470062
      5          1           0       -2.937893    1.006233    0.735213
      6          1           0       -2.690708   -0.722134    1.109262
      7          8           0       -1.716550    0.062465   -0.541748
      8          8           0       -0.828950   -1.037955   -0.553111
      9          1           0        0.170278   -0.565988   -0.351890
     10          1           0        1.974635    2.144405   -0.075638
     11          1           0        0.220233    1.826398   -0.588043
     12          6           0        2.476500   -0.705803    0.367553
     13          1           0        2.744821   -1.422791   -0.407874
     14          1           0        3.353011   -0.089886    0.586003
     15          1           0        2.220217   -1.271078    1.263161
 ---------------------------------------------------------------------

 SCF Done:  E(UB2PLYPD3) =  -307.569199357     A.U. after    1 cycles
 E2(B2PLYPD3) =    -0.3831155194D+00 E(B2PLYPD3) =    -0.30795231487643D+03
 E2(B2PLYPD3) =    -0.3831155194D+00 E(B2PLYPD3) =    -0.30795231487643D+03

 The electronic state is 2-A.
 Alpha  occ. eigenvalues --  -19.78447 -19.78129 -10.65769 -10.65484 -10.63263
 Alpha  occ. eigenvalues --  -10.61896  -1.27086  -1.02223  -0.92891  -0.81836
 Alpha  occ. eigenvalues --   -0.77528  -0.65646  -0.60316  -0.55589  -0.54238
 Alpha  occ. eigenvalues --   -0.53427  -0.51639  -0.50337  -0.48784  -0.46592
 Alpha  occ. eigenvalues --   -0.43775  -0.36930  -0.36714  -0.32465  -0.29936
 Alpha virt. eigenvalues --    0.05983   0.07728   0.09852   0.11333   0.13158
 Alpha virt. eigenvalues --    0.14127   0.15073   0.15424   0.17136   0.17641
 Alpha virt. eigenvalues --    0.18653   0.22606   0.26620   0.29025   0.29528

  Beta  occ. eigenvalues --  -19.78318 -19.76712 -10.65776 -10.63961 -10.63233
  Beta  occ. eigenvalues --  -10.62107  -1.25412  -0.99663  -0.90684  -0.81582
  Beta  occ. eigenvalues --   -0.77168  -0.61984  -0.57964  -0.54680  -0.53928
  Beta  occ. eigenvalues --   -0.51700  -0.50405  -0.49901  -0.46314  -0.45238
  Beta  occ. eigenvalues --   -0.43063  -0.35654  -0.33694  -0.31998
  Beta virt. eigenvalues --   -0.04872   0.06983   0.07941   0.09913   0.11584
  Beta virt. eigenvalues --    0.13641   0.14286   0.15322   0.15578   0.17295
  Beta virt. eigenvalues --    0.17808   0.19107   0.23030   0.27073   0.29313

 Mulliken charges and spin densities:
               1          2
     1  C   -0.039231   0.712673
     2  C   -0.323452  -0.148985
     3  C   -0.066457  -0.002976
     4  H    0.073849   0.000185
     5  H    0.095252  -0.000720
     6  H    0.096220   0.001723
     7  O   -0.191613   0.022490
     8  O   -0.228878   0.359118
     9  H    0.223903  -0.074264
    10  H    0.130584   0.062471
    11  H    0.159499   0.021858
    12  C   -0.263829  -0.004086
    13  H    0.117827   0.003614
    14  H    0.103439   0.043319
    15  H    0.112888   0.003580
 Sum of Mulliken charges =  -0.00000   1.00000

 Dipole moment (field-independent basis, Debye):
    X=              1.5987    Y=              0.9639    Z=              2.0659  Tot=              2.7844
 Quadrupole moment (field-independent basis, Debye-Ang):
   XX=            -32.4721   YY=            -37.2995   ZZ=            -39.8190
   XY=             -2.2398   XZ=             -2.7090   YZ=             -0.8747

  Exact polarizability:  96.540   2.767  68.986   1.359  -1.418  46.917
 Approx polarizability:  80.328  -1.437  81.128   3.497  -0.996  55.066

 ******    1 imaginary frequencies (negative Signs) ******

                      1                      2                      3
                      A                      A                      A
 Frequencies --  -1623.7473                48.9806                87.7691
 Red. masses --      1.1452                 3.3078                 2.9526
 Frc consts  --      1.7789                 0.0047                 0.0134
 IR Inten    --   1609.9623                 2.1942                 1.7027

                      4                      5                      6
                      A                      A                      A
 Frequencies --    109.6745               149.9573               194.7778
 Red. masses --      2.6507                 1.1088                 1.7674
 Frc consts  --      0.0188                 0.0147                 0.0395
 IR Inten    --      1.8416                 0.2663                 0.1844

                      7                      8                      9
                      A                      A                      A
 Frequencies --    245.3523               270.5215               350.1520
 Red. masses --      1.8390                 2.3773                 2.6927
 Frc consts  --      0.0652                 0.1025                 0.1945
 IR Inten    --      2.2740                 2.4180                 1.1243

                     10                     11                     12
                      A                      A                      A
 Frequencies --    467.1477               557.5397               606.5472
 Red. masses --      3.5816                 1.0721                 3.6480
 Frc consts  --      0.4605                 0.1964                 0.7907
 IR Inten    --      4.1222                 1.6243                13.8337

                     13                     14                     15
                      A                      A                      A
 Frequencies --    843.8766               911.6871               918.0018
 Red. masses --      1.0564                 3.9302                 1.9294
 Frc consts  --      0.4433                 1.9247                 0.9580
 IR Inten    --     34.2470                12.5306                 4.6495

                     16                     17                     18
                      A                      A                      A
 Frequencies --    927.5064               965.7289              1055.0218
 Red. masses --      1.3249                 1.5629                 7.1917
 Frc consts  --      0.6716                 0.8588                 4.7164
 IR Inten    --     29.8387                 9.8472                27.2903

                     19                     20                     21
                      A                      A                      A
 Frequencies --   1068.0308              1179.2637              1192.7947
 Red. masses --      1.4339                 1.2709                 2.1189
 Frc consts  --      0.9637                 1.0413                 1.7762
 IR Inten    --      0.5752                 1.5055                18.1468

                     22                     23                     24
                      A                      A                      A
 Frequencies --   1219.8670              1403.0559              1425.9887
 Red. masses --      1.6344                 1.1726                 1.1791
 Frc consts  --      1.4329                 1.3601                 1.4126
 IR Inten    --      4.2773                 1.8641                 3.2294

                     25                     26                     27
                      A                      A                      A
 Frequencies --   1457.8741              1470.9687              1481.8022
 Red. masses --      1.1464                 1.0416                 1.0495
 Frc consts  --      1.4356                 1.3278                 1.3578
 IR Inten    --      3.7810                 8.3113                 7.8565

                     28                     29                     30
                      A                      A                      A
 Frequencies --   1492.7560              1497.8902              1519.3774
 Red. masses --      1.0520                 1.0667                 1.0516
 Frc consts  --      1.3812                 1.4101                 1.4303
 IR Inten    --      5.2320                11.5702                 9.3950

                     31                     32                     33
                      A                      A                      A
 Frequencies --   1741.1755              3026.9535              3037.8687
 Red. masses --      6.7347                 1.0391                 1.0299
 Frc consts  --     12.0297                 5.6097                 5.5997
 IR Inten    --     17.6048                18.6229                35.1790

                     34                     35                     36
                      A                      A                      A
 Frequencies --   3097.5998              3100.9058              3115.4636
 Red. masses --      1.0622                 1.0942                 1.1006
 Frc consts  --      6.0048                 6.1990                 6.2940
 IR Inten    --      9.8279                10.1291                 7.2873

                     37                     38                     39
                      A                      A                      A
 Frequencies --   3115.8477              3143.9636              3201.3187
 Red. masses --      1.1046                 1.1049                 1.1073
 Frc consts  --      6.3186                 6.4346                 6.6862
 IR Inten    --     39.2987                14.9008                 0.2300

 - Thermochemistry -
 -------------------
 Temperature   298.150 Kelvin.  Pressure   1.00000 Atm.
 Atom     1 has atomic number  6 and mass  12.00000

 Molecular mass:    89.06025 amu.
 Principal axes and moments of inertia in atomic units:
                           1         2         3
     Eigenvalues --   314.437061071.847081202.87542
           X            0.99970  -0.01979  -0.01430
           Y            0.01925   0.99912  -0.03718
           Z            0.01503   0.03690   0.99921
 This molecule is an asymmetric top.
 Rotational symmetry number  1.
 Rotational temperatures (Kelvin)      0.27546     0.08081     0.07201
 Rotational constants (GHZ):           5.73959     1.68377     1.50036
    1 imaginary frequencies ignored.
 Zero-point vibrational energy     309240.7 (Joules/Mol)
                                   73.91030 (Kcal/Mol)
 Warning -- explicit consideration of  11 degrees of freedom as
           vibrations may cause significant error
 Vibrational temperatures:     70.47   126.28   157.80   215.76   280.24
          (Kelvin)            353.01   389.22   503.79   672.12   802.18
                              872.69  1214.15  1311.71  1320.80  1334.47
                             1389.47  1517.94  1536.66  1696.70  1716.17
                             1755.12  2018.68  2051.68  2097.56  2116.40
                             2131.98  2147.74  2155.13  2186.05  2505.16
                             4355.11  4370.82  4456.76  4461.51  4482.46
                             4483.01  4523.46  4605.98

 Zero-point correction=                           0.117784 (Hartree/Particle)
 Thermal correction to Energy=                    0.126459
 Thermal correction to Enthalpy=                  0.127403
 Thermal correction to Gibbs Free Energy=         0.083580
 Sum of electronic and zero-point Energies=           -307.834531
 Sum of electronic and thermal Energies=              -307.825856
 Sum of electronic and thermal Enthalpies=            -307.824912
 Sum of electronic and thermal Free Energies=         -307.868735

                     E (Thermal)             CV                S
                      KCal/Mol        Cal/Mol-Kelvin    Cal/Mol-Kelvin
 Total                   79.354             28.503             92.233
 Electronic               0.000              0.000              1.377
 Translational            0.889              2.981             39.373
 Rotational               0.889              2.981             27.496
 Vibrational             77.577             22.541             23.986
 Vibration     1          0.595              1.978              4.858
 Vibration     2          0.601              1.958              3.709
 Vibration     3          0.606              1.941              3.275
 Vibration     4          0.618              1.903              2.673
 Vibration     5          0.635              1.847              2.182
 Vibration     6          0.660              1.770              1.764
 Vibration     7          0.674              1.728              1.593
 Vibration     8          0.727              1.575              1.166
 Vibration     9          0.824              1.323              0.746
 Vibration    10          0.913              1.123              0.529
 Vibration    11          0.965              1.018              0.439

                           ! Non-Optimized Parameters !
 Normal termination of Gaussian 16 at Fri Jun  7 13:32:07 2019.
