 Gaussian 16, Revision B.01,
 Gaussian 16:  ES64L-G16RevB.01 20-Dec-2017

 ----------------------------------------------------------------------
 # opt=(calcfc,ts,noeigentest,maxcyc=500,modredundant) uB2PLYPD3/cc-pvt
 z scf=maxcyc=500 nosymm
 ----------------------------------------------------------------------

 -------------------
 Title Card Required
 -------------------
 Symbolic Z-matrix:
 Charge =  0 Multiplicity = 2

 SCF Done:  E(UB2PLYPD3) =  -269.557868731     A.U. after   19 cycles
 E2(B2PLYPD3) =    -0.3354363391D+00 E(B2PLYPD3) =    -0.26989330506986D+03
 E2(B2PLYPD3) =    -0.3354363391D+00 E(B2PLYPD3) =    -0.26989330506986D+03

  Exact polarizability:  83.404  -1.242  50.288  -4.454   0.618  45.416
 Approx polarizability:  68.663  -1.089  57.194  -5.602   0.161  51.638

 Optimization completed.
    -- Stationary point found.
 SCF Done:  E(UB2PLYPD3) =  -269.557746130     A.U. after   15 cycles
 E2(B2PLYPD3) =    -0.3355267099D+00 E(B2PLYPD3) =    -0.26989327283971D+03
 SCF Done:  E(UB2PLYPD3) =  -269.557850275     A.U. after   13 cycles
 E2(B2PLYPD3) =    -0.3354414949D+00 E(B2PLYPD3) =    -0.26989329176992D+03
 SCF Done:  E(UB2PLYPD3) =  -269.557832337     A.U. after   11 cycles
 E2(B2PLYPD3) =    -0.3354600410D+00 E(B2PLYPD3) =    -0.26989329237750D+03
 SCF Done:  E(UB2PLYPD3) =  -269.557834440     A.U. after    7 cycles
 E2(B2PLYPD3) =    -0.3354579728D+00 E(B2PLYPD3) =    -0.26989329241251D+03
 Optimization completed.
 SCF Done:  E(UB2PLYPD3) =  -269.557664668     A.U. after   15 cycles
 E2(B2PLYPD3) =    -0.3355516222D+00 E(B2PLYPD3) =    -0.26989321629005D+03
 SCF Done:  E(UB2PLYPD3) =  -269.557797831     A.U. after   13 cycles
 E2(B2PLYPD3) =    -0.3354461734D+00 E(B2PLYPD3) =    -0.26989324400431D+03
 SCF Done:  E(UB2PLYPD3) =  -269.557722244     A.U. after   13 cycles
 E2(B2PLYPD3) =    -0.3355137714D+00 E(B2PLYPD3) =    -0.26989323601557D+03
 SCF Done:  E(UB2PLYPD3) =  -269.557765761     A.U. after   12 cycles
 E2(B2PLYPD3) =    -0.3354827007D+00 E(B2PLYPD3) =    -0.26989324846197D+03
 SCF Done:  E(UB2PLYPD3) =  -269.557773511     A.U. after   10 cycles
 E2(B2PLYPD3) =    -0.3354756162D+00 E(B2PLYPD3) =    -0.26989324912713D+03
 E2(B2PLYPD3) =    -0.3354769720D+00 E(B2PLYPD3) =    -0.26989324914591D+03
 E2(B2PLYPD3) =    -0.3355646044D+00 E(B2PLYPD3) =    -0.26989311921542D+03
 E2(B2PLYPD3) =    -0.3354715143D+00 E(B2PLYPD3) =    -0.26989316110028D+03
 E2(B2PLYPD3) =    -0.3351310352D+00 E(B2PLYPD3) =    -0.26988925878111D+03
 E2(B2PLYPD3) =    -0.3358262612D+00 E(B2PLYPD3) =    -0.26989111713803D+03
 E2(B2PLYPD3) =    -0.3358566516D+00 E(B2PLYPD3) =    -0.26989140152684D+03
 E2(B2PLYPD3) =    -0.3350922783D+00 E(B2PLYPD3) =    -0.26989203179152D+03
 E2(B2PLYPD3) =    -0.3353173934D+00 E(B2PLYPD3) =    -0.26989303167005D+03
 E2(B2PLYPD3) =    -0.3354956575D+00 E(B2PLYPD3) =    -0.26989316811639D+03
 E2(B2PLYPD3) =    -0.3351046830D+00 E(B2PLYPD3) =    -0.26989288442252D+03
 E2(B2PLYPD3) =    -0.3351271335D+00 E(B2PLYPD3) =    -0.26989289489907D+03
 E2(B2PLYPD3) =    -0.3351286536D+00 E(B2PLYPD3) =    -0.26989289496016D+03
 E2(B2PLYPD3) =    -0.3352070307D+00 E(B2PLYPD3) =    -0.26989305921305D+03
 E2(B2PLYPD3) =    -0.3352344632D+00 E(B2PLYPD3) =    -0.26989306804539D+03
 E2(B2PLYPD3) =    -0.3352337967D+00 E(B2PLYPD3) =    -0.26989306821394D+03
 E2(B2PLYPD3) =    -0.3352336577D+00 E(B2PLYPD3) =    -0.26989306822450D+03
 E2(B2PLYPD3) =    -0.3353283738D+00 E(B2PLYPD3) =    -0.26989320323910D+03
 E2(B2PLYPD3) =    -0.3353277589D+00 E(B2PLYPD3) =    -0.26989320881588D+03
 E2(B2PLYPD3) =    -0.3353349933D+00 E(B2PLYPD3) =    -0.26989320948887D+03
 SCF Done:  E(UB2PLYPD3) =  -269.557877146     A.U. after   10 cycles
 E2(B2PLYPD3) =    -0.3353325005D+00 E(B2PLYPD3) =    -0.26989320964665D+03
 SCF Done:  E(UB2PLYPD3) =  -269.557844993     A.U. after   15 cycles
 E2(B2PLYPD3) =    -0.3354337567D+00 E(B2PLYPD3) =    -0.26989327874966D+03
 SCF Done:  E(UB2PLYPD3) =  -269.557899354     A.U. after   12 cycles
 E2(B2PLYPD3) =    -0.3353871437D+00 E(B2PLYPD3) =    -0.26989328649775D+03
 SCF Done:  E(UB2PLYPD3) =  -269.557884736     A.U. after   10 cycles
 E2(B2PLYPD3) =    -0.3354020751D+00 E(B2PLYPD3) =    -0.26989328681151D+03
 SCF Done:  E(UB2PLYPD3) =  -269.557885625     A.U. after    9 cycles
 E2(B2PLYPD3) =    -0.3354012688D+00 E(B2PLYPD3) =    -0.26989328689339D+03
    -- Stationary point found.
 SCF Done:  E(UB2PLYPD3) =  -269.557796486     A.U. after   15 cycles
 E2(B2PLYPD3) =    -0.3354964439D+00 E(B2PLYPD3) =    -0.26989329293033D+03
 SCF Done:  E(UB2PLYPD3) =  -269.557880309     A.U. after   12 cycles
 E2(B2PLYPD3) =    -0.3354248984D+00 E(B2PLYPD3) =    -0.26989330520691D+03
 SCF Done:  E(UB2PLYPD3) =  -269.557868683     A.U. after   11 cycles
 E2(B2PLYPD3) =    -0.3354369412D+00 E(B2PLYPD3) =    -0.26989330562389D+03
 SCF Done:  E(UB2PLYPD3) =  -269.557861329     A.U. after   10 cycles
 E2(B2PLYPD3) =    -0.3354437251D+00 E(B2PLYPD3) =    -0.26989330505430D+03
 SCF Done:  E(UB2PLYPD3) =  -269.557870646     A.U. after   11 cycles
 E2(B2PLYPD3) =    -0.3354350473D+00 E(B2PLYPD3) =    -0.26989330569289D+03
 Optimization completed.
    -- Stationary point found.

                          Input orientation:
 ---------------------------------------------------------------------
 Center     Atomic      Atomic             Coordinates (Angstroms)
 Number     Number       Type             X           Y           Z
 ---------------------------------------------------------------------
      1          6           0       -2.033347   -0.079274    0.775581
      2          1           0       -3.035442    0.343239    0.652667
      3          1           0       -2.071606   -0.787674    1.600514
      4          1           0       -1.368368    0.733692    1.062469
      5          6           0       -1.577623   -0.740410   -0.490702
      6          1           0       -2.065212   -1.674994   -0.749809
      7          1           0       -1.431195   -0.090682   -1.347763
      8          6           0        1.861377    0.493525    0.203013
      9          1           0        1.182428    0.978286   -0.500849
     10          1           0        2.235871    1.222994    0.918291
     11          1           0        2.687976    0.036341   -0.337948
     12          8           0        1.175205   -0.476071    0.981427
     13          8           0        0.752236   -1.501919    0.113027
     14          1           0       -0.316212   -1.174809   -0.214565
 ---------------------------------------------------------------------

 Alpha  occ. eigenvalues --  -19.78528 -19.78265 -10.66032 -10.63891 -10.61393
 Alpha  occ. eigenvalues --   -1.27240  -1.01943  -0.89078  -0.77740  -0.72831
 Alpha  occ. eigenvalues --   -0.60878  -0.55799  -0.54449  -0.53179  -0.50936
 Alpha  occ. eigenvalues --   -0.47855  -0.46009  -0.43962  -0.42840  -0.37062
 Alpha  occ. eigenvalues --   -0.36495  -0.29822
 Alpha virt. eigenvalues --    0.07294   0.10171   0.10842   0.12831   0.14139
 Alpha virt. eigenvalues --    0.15068   0.15421   0.17514   0.17876   0.20996
 Alpha virt. eigenvalues --    0.24684   0.27916   0.29265   0.30461   0.31642

  Beta  occ. eigenvalues --  -19.78381 -19.76655 -10.66040 -10.62628 -10.61450
  Beta  occ. eigenvalues --   -1.25382  -0.99043  -0.87034  -0.77317  -0.70476
  Beta  occ. eigenvalues --   -0.57505  -0.54714  -0.54097  -0.52526  -0.48939
  Beta  occ. eigenvalues --   -0.45573  -0.44534  -0.43027  -0.42476  -0.35280
  Beta  occ. eigenvalues --   -0.33502
  Beta virt. eigenvalues --   -0.04278   0.07442   0.10280   0.11252   0.13161
  Beta virt. eigenvalues --    0.14629   0.15207   0.15467   0.17723   0.18029
  Beta virt. eigenvalues --    0.21645   0.25059   0.28623   0.29990   0.30652

 Mulliken charges and spin densities:
               1          2
     1  C   -0.272115  -0.032067
     2  H    0.104722   0.040572
     3  H    0.112135   0.004116
     4  H    0.107505   0.006889
     5  C   -0.288331   0.642993
     6  H    0.123729  -0.011194
     7  H    0.114913  -0.012017
     8  C   -0.058438  -0.003628
     9  H    0.066849   0.000755
    10  H    0.095392  -0.000875
    11  H    0.095074   0.002096
    12  O   -0.190407   0.025986
    13  O   -0.226652   0.412040
    14  H    0.215623  -0.075666
 Sum of Mulliken charges =  -0.00000   1.00000

 Dipole moment (field-independent basis, Debye):
    X=             -1.1157    Y=              1.8880    Z=             -1.0815  Tot=              2.4452
 Quadrupole moment (field-independent basis, Debye-Ang):
   XX=            -29.0985   YY=            -34.4077   ZZ=            -33.9296
   XY=              4.0701   XZ=             -0.6484   YZ=              1.2435

 Normal termination of Gaussian 16 at Thu Jun 13 17:42:49 2019.
