 Gaussian 16, Revision B.01,
 Gaussian 16:  ES64L-G16RevB.01 20-Dec-2017

 ----------------------------------------------------------------------
 # opt=(calcfc,ts,noeigentest,maxcyc=500,modredundant) uB2PLYPD3/cc-pvt
 z scf=maxcyc=500 nosymm
 ----------------------------------------------------------------------

 -------------------
 Title Card Required
 -------------------
 Symbolic Z-matrix:
 Charge =  0 Multiplicity = 2

 SCF Done:  E(UB2PLYPD3) =  -307.564584653     A.U. after   22 cycles
 E2(B2PLYPD3) =    -0.3820764649D+00 E(B2PLYPD3) =    -0.30794666111769D+03
 E2(B2PLYPD3) =    -0.3820764649D+00 E(B2PLYPD3) =    -0.30794666111769D+03

  Exact polarizability:  97.281   0.063  63.431  -0.940   5.760  48.849
 Approx polarizability:  77.693   3.227  75.745  -1.439   9.305  59.366

 Optimization completed.
    -- Stationary point found.
 SCF Done:  E(UB2PLYPD3) =  -307.564269251     A.U. after   17 cycles
 E2(B2PLYPD3) =    -0.3822058931D+00 E(B2PLYPD3) =    -0.30794647514379D+03
 SCF Done:  E(UB2PLYPD3) =  -307.564492906     A.U. after   14 cycles
 E2(B2PLYPD3) =    -0.3820502520D+00 E(B2PLYPD3) =    -0.30794654315749D+03
 SCF Done:  E(UB2PLYPD3) =  -307.564456455     A.U. after   12 cycles
 E2(B2PLYPD3) =    -0.3820899994D+00 E(B2PLYPD3) =    -0.30794654645427D+03
 SCF Done:  E(UB2PLYPD3) =  -307.564454733     A.U. after    9 cycles
 E2(B2PLYPD3) =    -0.3820918072D+00 E(B2PLYPD3) =    -0.30794654654006D+03
 Optimization completed.
 SCF Done:  E(UB2PLYPD3) =  -307.563951568     A.U. after   15 cycles
 E2(B2PLYPD3) =    -0.3821735720D+00 E(B2PLYPD3) =    -0.30794612514022D+03
 SCF Done:  E(UB2PLYPD3) =  -307.564190015     A.U. after   15 cycles
 E2(B2PLYPD3) =    -0.3820159630D+00 E(B2PLYPD3) =    -0.30794620597827D+03
 SCF Done:  E(UB2PLYPD3) =  -307.564153083     A.U. after   12 cycles
 E2(B2PLYPD3) =    -0.3820581339D+00 E(B2PLYPD3) =    -0.30794621121670D+03
 SCF Done:  E(UB2PLYPD3) =  -307.564149367     A.U. after   10 cycles
 E2(B2PLYPD3) =    -0.3820619767D+00 E(B2PLYPD3) =    -0.30794621134415D+03
 SCF Done:  E(UB2PLYPD3) =  -307.563521433     A.U. after   16 cycles
 E2(B2PLYPD3) =    -0.3820892008D+00 E(B2PLYPD3) =    -0.30794561063341D+03
 E2(B2PLYPD3) =    -0.3819374486D+00 E(B2PLYPD3) =    -0.30794569367945D+03
 E2(B2PLYPD3) =    -0.3819763177D+00 E(B2PLYPD3) =    -0.30794570041182D+03
 E2(B2PLYPD3) =    -0.3819814164D+00 E(B2PLYPD3) =    -0.30794570065105D+03
 E2(B2PLYPD3) =    -0.3819808400D+00 E(B2PLYPD3) =    -0.30794570067331D+03
 E2(B2PLYPD3) =    -0.3819615972D+00 E(B2PLYPD3) =    -0.30794501494843D+03
 E2(B2PLYPD3) =    -0.3818395736D+00 E(B2PLYPD3) =    -0.30794509213620D+03
 E2(B2PLYPD3) =    -0.3818522535D+00 E(B2PLYPD3) =    -0.30794509733771D+03
 E2(B2PLYPD3) =    -0.3818523389D+00 E(B2PLYPD3) =    -0.30794509773684D+03
 E2(B2PLYPD3) =    -0.3818493837D+00 E(B2PLYPD3) =    -0.30794509773408D+03
 E2(B2PLYPD3) =    -0.3815539146D+00 E(B2PLYPD3) =    -0.30794546537735D+03
 E2(B2PLYPD3) =    -0.3816748003D+00 E(B2PLYPD3) =    -0.30794585840481D+03
 E2(B2PLYPD3) =    -0.3817455985D+00 E(B2PLYPD3) =    -0.30794587665546D+03
 E2(B2PLYPD3) =    -0.3817343658D+00 E(B2PLYPD3) =    -0.30794587747387D+03
 E2(B2PLYPD3) =    -0.3817332922D+00 E(B2PLYPD3) =    -0.30794587749977D+03
 E2(B2PLYPD3) =    -0.3818877626D+00 E(B2PLYPD3) =    -0.30794625430619D+03
 E2(B2PLYPD3) =    -0.3818730322D+00 E(B2PLYPD3) =    -0.30794626834068D+03
 E2(B2PLYPD3) =    -0.3818952827D+00 E(B2PLYPD3) =    -0.30794627008629D+03
 E2(B2PLYPD3) =    -0.3818900786D+00 E(B2PLYPD3) =    -0.30794627025222D+03
 E2(B2PLYPD3) =    -0.3820611101D+00 E(B2PLYPD3) =    -0.30794652972340D+03
 SCF Done:  E(UB2PLYPD3) =  -307.564605011     A.U. after   13 cycles
 E2(B2PLYPD3) =    -0.3819459992D+00 E(B2PLYPD3) =    -0.30794655101057D+03
 SCF Done:  E(UB2PLYPD3) =  -307.564542560     A.U. after   12 cycles
 E2(B2PLYPD3) =    -0.3820131800D+00 E(B2PLYPD3) =    -0.30794655574006D+03
 SCF Done:  E(UB2PLYPD3) =  -307.564223816     A.U. after   18 cycles
 E2(B2PLYPD3) =    -0.3816124307D+00 E(B2PLYPD3) =    -0.30794583624683D+03
 SCF Done:  E(UB2PLYPD3) =  -307.564482831     A.U. after   17 cycles
 E2(B2PLYPD3) =    -0.3820044932D+00 E(B2PLYPD3) =    -0.30794648732449D+03
 SCF Done:  E(UB2PLYPD3) =  -307.564539977     A.U. after   12 cycles
 E2(B2PLYPD3) =    -0.3820145280D+00 E(B2PLYPD3) =    -0.30794655450533D+03
 SCF Done:  E(UB2PLYPD3) =  -307.564550962     A.U. after   12 cycles
 E2(B2PLYPD3) =    -0.3820049388D+00 E(B2PLYPD3) =    -0.30794655590079D+03
    -- Stationary point found.
 SCF Done:  E(UB2PLYPD3) =  -307.564443952     A.U. after   17 cycles
 E2(B2PLYPD3) =    -0.3821701208D+00 E(B2PLYPD3) =    -0.30794661407264D+03
 SCF Done:  E(UB2PLYPD3) =  -307.564624107     A.U. after   13 cycles
 E2(B2PLYPD3) =    -0.3820357975D+00 E(B2PLYPD3) =    -0.30794665990484D+03
 SCF Done:  E(UB2PLYPD3) =  -307.564587219     A.U. after   12 cycles
 E2(B2PLYPD3) =    -0.3820743929D+00 E(B2PLYPD3) =    -0.30794666161170D+03
 SCF Done:  E(UB2PLYPD3) =  -307.564589272     A.U. after    9 cycles
 E2(B2PLYPD3) =    -0.3820724173D+00 E(B2PLYPD3) =    -0.30794666168973D+03
 Optimization completed.
    -- Stationary point found.

                          Input orientation:
 ---------------------------------------------------------------------
 Center     Atomic      Atomic             Coordinates (Angstroms)
 Number     Number       Type             X           Y           Z
 ---------------------------------------------------------------------
      1          6           0       -1.044536   -1.360519   -0.038268
      2          6           0       -1.535049   -0.214956    0.369358
      3          1           0       -1.437125   -2.160990   -0.648242
      4          1           0       -0.909540    0.417586    0.994094
      5          6           0        2.164877    0.364903    0.022078
      6          1           0        1.465976    0.380710   -0.815501
      7          1           0        2.400512    1.381601    0.330676
      8          1           0        3.074078   -0.162188   -0.261636
      9          8           0        1.570986   -0.241127    1.161284
     10          8           0        1.324156   -1.598247    0.837277
     11          1           0        0.298705   -1.580639    0.443562
     12          6           0       -2.912067    0.302575    0.044941
     13          1           0       -3.462847   -0.393144   -0.583243
     14          1           0       -3.477836    0.466689    0.962281
     15          1           0       -2.844469    1.260423   -0.471499
 ---------------------------------------------------------------------

 Alpha  occ. eigenvalues --  -19.78395 -19.77991 -10.65772 -10.64471 -10.63588
 Alpha  occ. eigenvalues --  -10.62617  -1.26981  -1.02352  -0.92621  -0.81184
 Alpha  occ. eigenvalues --   -0.77426  -0.65952  -0.61833  -0.55401  -0.54147
 Alpha  occ. eigenvalues --   -0.53263  -0.51540  -0.49398  -0.48435  -0.44758
 Alpha  occ. eigenvalues --   -0.43686  -0.37252  -0.36782  -0.32981  -0.30657
 Alpha virt. eigenvalues --    0.05930   0.07841   0.09821   0.10848   0.12728
 Alpha virt. eigenvalues --    0.14084   0.14877   0.15259   0.16909   0.17240
 Alpha virt. eigenvalues --    0.19582   0.22485   0.26965   0.29134   0.29801

  Beta  occ. eigenvalues --  -19.78288 -19.76704 -10.65778 -10.63845 -10.62839
  Beta  occ. eigenvalues --  -10.62439  -1.25452  -1.00028  -0.91424  -0.79151
  Beta  occ. eigenvalues --   -0.77082  -0.64184  -0.58554  -0.54519  -0.53884
  Beta  occ. eigenvalues --   -0.52331  -0.49723  -0.49517  -0.46062  -0.43895
  Beta  occ. eigenvalues --   -0.43095  -0.35792  -0.33934  -0.31929
  Beta virt. eigenvalues --   -0.05162   0.06684   0.07963   0.10012   0.11232
  Beta virt. eigenvalues --    0.13369   0.14159   0.14999   0.15390   0.16983
  Beta virt. eigenvalues --    0.17351   0.20151   0.22708   0.27576   0.29464

 Mulliken charges and spin densities:
               1          2
     1  C   -0.271454   0.790978
     2  C   -0.106812  -0.162156
     3  H    0.156004   0.025285
     4  H    0.169563   0.025777
     5  C   -0.065969  -0.002223
     6  H    0.073543  -0.000320
     7  H    0.093890  -0.000581
     8  H    0.098421   0.001537
     9  O   -0.194941   0.018403
    10  O   -0.230307   0.323149
    11  H    0.228470  -0.072096
    12  C   -0.261364   0.060507
    13  H    0.100057  -0.002574
    14  H    0.107824  -0.002933
    15  H    0.103078  -0.002753
 Sum of Mulliken charges =  -0.00000   1.00000

 Dipole moment (field-independent basis, Debye):
    X=             -1.8302    Y=              1.5381    Z=             -1.9331  Tot=              3.0745
 Quadrupole moment (field-independent basis, Debye-Ang):
   XX=            -34.2105   YY=            -37.9599   ZZ=            -41.3375
   XY=              3.7580   XZ=             -2.6173   YZ=              3.2261

 Normal termination of Gaussian 16 at Sat Jun 15 07:05:07 2019.
