 Gaussian 16, Revision B.01,
 Gaussian 16:  ES64L-G16RevB.01 20-Dec-2017

 ----------------------------------------------------------------------
 # opt=(calcfc,ts,noeigentest,maxcyc=500) freq=noraman uB2PLYPD3/cc-pvt
 z
 ----------------------------------------------------------------------

 -------------------
 Title Card Required
 -------------------
 Symbolic Z-matrix:
 Charge =  0 Multiplicity = 2

 SCF Done:  E(UB2PLYPD3) =  -308.790451730     A.U. after   19 cycles
 E2(B2PLYPD3) =    -0.3911753206D+00 E(B2PLYPD3) =    -0.30918162705024D+03
 E2(B2PLYPD3) =    -0.3911753206D+00 E(B2PLYPD3) =    -0.30918162705024D+03
 SCF Done:  E(UB2PLYPD3) =  -308.790397971     A.U. after   14 cycles
 E2(B2PLYPD3) =    -0.3917341276D+00 E(B2PLYPD3) =    -0.30918213209890D+03
 SCF Done:  E(UB2PLYPD3) =  -308.790359567     A.U. after   12 cycles
 E2(B2PLYPD3) =    -0.3917782160D+00 E(B2PLYPD3) =    -0.30918213778336D+03
 SCF Done:  E(UB2PLYPD3) =  -308.790358967     A.U. after   10 cycles
 E2(B2PLYPD3) =    -0.3917789812D+00 E(B2PLYPD3) =    -0.30918213794857D+03
 Optimization completed.
    -- Stationary point found.
 Normal termination of Gaussian 16 at Fri Jun  7 15:07:57 2019.

 ----------------------------------------------------------------------
 #N Geom=AllCheck Guess=TCheck SCRF=Check GenChk UB2PLYPD3(FC)/CC-pVTZ
 Freq
 ----------------------------------------------------------------------

 Structure from the checkpoint file:  "/localscratch/341085/Gau-96585.chk"
 -------------------
 Title Card Required
 -------------------
 Charge =  0 Multiplicity = 2

                         Standard orientation:
 ---------------------------------------------------------------------
 Center     Atomic      Atomic             Coordinates (Angstroms)
 Number     Number       Type             X           Y           Z
 ---------------------------------------------------------------------
      1          6           0        1.753655    0.166705    0.445361
      2          1           0        1.277550    1.128059    0.641836
      3          1           0        1.818450   -0.352236    1.402520
      4          6           0        0.914373   -0.632940   -0.509298
      5          1           0        0.628858   -0.135017   -1.432569
      6          1           0        1.223978   -1.662267   -0.667008
      7          6           0       -2.370859    1.057620   -0.019667
      8          1           0       -1.427077    1.585690   -0.167987
      9          1           0       -3.124182    1.451605   -0.698838
     10          1           0       -2.697973    1.170526    1.012603
     11          8           0       -2.242643   -0.314689   -0.358680
     12          8           0       -1.354194   -0.903146    0.563262
     13          1           0       -0.310184   -0.803769    0.062150
     14          6           0        3.169657    0.403581   -0.097343
     15          1           0        3.139810    0.947042   -1.041041
     16          1           0        3.761537    0.984467    0.609176
     17          1           0        3.682976   -0.541218   -0.271815
 ---------------------------------------------------------------------

 SCF Done:  E(UB2PLYPD3) =  -308.790358967     A.U. after    1 cycles
 E2(B2PLYPD3) =    -0.3917789819D+00 E(B2PLYPD3) =    -0.30918213794927D+03
 E2(B2PLYPD3) =    -0.3917789819D+00 E(B2PLYPD3) =    -0.30918213794927D+03

 The electronic state is 2-A.
 Alpha  occ. eigenvalues --  -19.78322 -19.78215 -10.65922 -10.63668 -10.62349
 Alpha  occ. eigenvalues --  -10.61306  -1.27095  -1.01869  -0.91790  -0.80594
 Alpha  occ. eigenvalues --   -0.77271  -0.69446  -0.60699  -0.55955  -0.54773
 Alpha  occ. eigenvalues --   -0.54239  -0.51274  -0.49298  -0.47139  -0.45996
 Alpha  occ. eigenvalues --   -0.43852  -0.42215  -0.40737  -0.36510  -0.36394
 Alpha  occ. eigenvalues --   -0.29909
 Alpha virt. eigenvalues --    0.06934   0.09334   0.11059   0.11480   0.12787
 Alpha virt. eigenvalues --    0.13475   0.15253   0.15873   0.16242   0.17896
 Alpha virt. eigenvalues --    0.18642   0.20859   0.22313   0.24740   0.27706

  Beta  occ. eigenvalues --  -19.78192 -19.76606 -10.65931 -10.62426 -10.62380
  Beta  occ. eigenvalues --  -10.61186  -1.25246  -0.98982  -0.90557  -0.78585
  Beta  occ. eigenvalues --   -0.76661  -0.68361  -0.57361  -0.55201  -0.53945
  Beta  occ. eigenvalues --   -0.53938  -0.50307  -0.46821  -0.46665  -0.43991
  Beta  occ. eigenvalues --   -0.42936  -0.41795  -0.40557  -0.35177  -0.33204
  Beta virt. eigenvalues --   -0.04438   0.07101   0.09500   0.11393   0.11733
  Beta virt. eigenvalues --    0.12852   0.14067   0.15339   0.15921   0.16425
  Beta virt. eigenvalues --    0.18053   0.18836   0.21499   0.22733   0.25065

 Mulliken charges and spin densities:
               1          2
     1  C   -0.158452  -0.037202
     2  H    0.101216   0.004584
     3  H    0.105639   0.005281
     4  C   -0.292614   0.658120
     5  H    0.120523  -0.013933
     6  H    0.123000  -0.013472
     7  C   -0.051899  -0.003765
     8  H    0.062551   0.001359
     9  H    0.097691  -0.001009
    10  H    0.083418   0.002140
    11  O   -0.188626   0.023580
    12  O   -0.224232   0.412170
    13  H    0.218587  -0.076316
    14  C   -0.294638   0.030110
    15  H    0.095212  -0.000474
    16  H    0.105320   0.009745
    17  H    0.097304  -0.000919
 Sum of Mulliken charges =  -0.00000   1.00000

 Dipole moment (field-independent basis, Debye):
    X=              1.8664    Y=              1.9728    Z=             -0.3791  Tot=              2.7421
 Quadrupole moment (field-independent basis, Debye-Ang):
   XX=            -39.4573   YY=            -38.8672   ZZ=            -39.8989
   XY=             -5.7236   XZ=              0.3209   YZ=              0.2782

  Exact polarizability: 108.129  -4.424  59.098  -4.217  -0.223  56.297
 Approx polarizability:  85.834  -1.904  65.835  -1.528  -2.541  66.030

 ******    1 imaginary frequencies (negative Signs) ******

                      1                      2                      3
                      A                      A                      A
 Frequencies --  -1916.6948                24.7141                54.6727
 Red. masses --      1.1066                 2.4286                 2.0824
 Frc consts  --      2.3953                 0.0009                 0.0037
 IR Inten    --   2213.2013                 1.3457                 0.5382

                      4                      5                      6
                      A                      A                      A
 Frequencies --     75.9884               115.0597               167.1360
 Red. masses --      2.6184                 3.2108                 2.0969
 Frc consts  --      0.0089                 0.0250                 0.0345
 IR Inten    --      1.5600                 2.2713                 1.4435

                      7                      8                      9
                      A                      A                      A
 Frequencies --    245.1610               247.3754               330.9984
 Red. masses --      1.4413                 1.1511                 2.7326
 Frc consts  --      0.0510                 0.0415                 0.1764
 IR Inten    --      1.9671                 0.5245                 1.8739

                     10                     11                     12
                      A                      A                      A
 Frequencies --    456.4558               529.1603               616.1266
 Red. masses --      2.6649                 1.5003                 2.4201
 Frc consts  --      0.3271                 0.2475                 0.5413
 IR Inten    --      4.5287                 1.1258                 0.3659

                     13                     14                     15
                      A                      A                      A
 Frequencies --    760.3411               904.0816               910.2263
 Red. masses --      1.0759                 1.9222                 2.1650
 Frc consts  --      0.3665                 0.9257                 1.0568
 IR Inten    --      2.1717                 5.7959                13.1256

                     16                     17                     18
                      A                      A                      A
 Frequencies --    919.8992               940.9051              1050.4768
 Red. masses --      1.6445                 1.3005                 2.8666
 Frc consts  --      0.8199                 0.6784                 1.8637
 IR Inten    --      3.9557                 9.4968                15.5995

                     19                     20                     21
                      A                      A                      A
 Frequencies --   1057.2376              1121.5869              1176.5476
 Red. masses --      3.8313                 1.7773                 1.3175
 Frc consts  --      2.5231                 1.3173                 1.0746
 IR Inten    --     27.1982                11.8580                 4.4418

                     22                     23                     24
                      A                      A                      A
 Frequencies --   1179.2009              1216.9442              1224.4218
 Red. masses --      1.2952                 1.5793                 1.5957
 Frc consts  --      1.0611                 1.3781                 1.4095
 IR Inten    --      6.3399                 2.5972                 0.4387

                     25                     26                     27
                      A                      A                      A
 Frequencies --   1326.3374              1354.2901              1413.4503
 Red. masses --      1.1127                 1.3930                 1.2070
 Frc consts  --      1.1533                 1.5053                 1.4207
 IR Inten    --      0.0192                 0.9412                 0.5598

                     28                     29                     30
                      A                      A                      A
 Frequencies --   1452.0630              1459.8284              1479.8399
 Red. masses --      1.0703                 1.1291                 1.1507
 Frc consts  --      1.3296                 1.4177                 1.4847
 IR Inten    --      2.7504                 7.2198                 1.6789

                     31                     32                     33
                      A                      A                      A
 Frequencies --   1482.0576              1502.7908              1509.5453
 Red. masses --      1.0553                 1.0572                 1.0399
 Frc consts  --      1.3657                 1.4067                 1.3962
 IR Inten    --      8.9318                 2.5512                 7.1893

                     34                     35                     36
                      A                      A                      A
 Frequencies --   1518.2770              1520.8609              3033.2434
 Red. masses --      1.0519                 1.0850                 1.0318
 Frc consts  --      1.4287                 1.4786                 5.5934
 IR Inten    --     13.0428                 4.3656                33.0989

                     37                     38                     39
                      A                      A                      A
 Frequencies --   3049.0907              3053.4962              3086.9902
 Red. masses --      1.0342                 1.0585                 1.1025
 Frc consts  --      5.6648                 5.8149                 6.1899
 IR Inten    --     34.6865                15.6052                 5.8353

                     40                     41                     42
                      A                      A                      A
 Frequencies --   3092.0144              3109.8587              3121.4904
 Red. masses --      1.0536                 1.1023                 1.1018
 Frc consts  --      5.9351                 6.2812                 6.3250
 IR Inten    --     12.4971                44.6146                31.4951

                     43                     44                     45
                      A                      A                      A
 Frequencies --   3124.8161              3144.3012              3175.9582
 Red. masses --      1.1033                 1.1047                 1.1114
 Frc consts  --      6.3473                 6.4349                 6.6047
 IR Inten    --     34.4466                16.2181                17.6008

 - Thermochemistry -
 -------------------
 Temperature   298.150 Kelvin.  Pressure   1.00000 Atm.
 Atom     1 has atomic number  6 and mass  12.00000

 Molecular mass:    91.07590 amu.
 Principal axes and moments of inertia in atomic units:
                           1         2         3
     Eigenvalues --   245.421121531.708551629.24814
           X            0.99986  -0.01645  -0.00243
           Y            0.01654   0.99901   0.04121
           Z            0.00175  -0.04124   0.99915
 This molecule is an asymmetric top.
 Rotational symmetry number  1.
 Rotational temperatures (Kelvin)      0.35292     0.05655     0.05316
 Rotational constants (GHZ):           7.35365     1.17825     1.10771
    1 imaginary frequencies ignored.
 Zero-point vibrational energy     372848.0 (Joules/Mol)
                                   89.11281 (Kcal/Mol)
 Warning -- explicit consideration of  11 degrees of freedom as
           vibrations may cause significant error
 Vibrational temperatures:     35.56    78.66   109.33   165.55   240.47
          (Kelvin)            352.73   355.92   476.23   656.74   761.34
                              886.47  1093.96  1300.77  1309.61  1323.53
                             1353.75  1511.40  1521.13  1613.71  1692.79
                             1696.61  1750.91  1761.67  1908.30  1948.52
                             2033.64  2089.19  2100.37  2129.16  2132.35
                             2162.18  2171.90  2184.46  2188.18  4364.16
                             4386.96  4393.30  4441.49  4448.72  4474.39
                             4491.13  4495.91  4523.95  4569.50

 Zero-point correction=                           0.142010 (Hartree/Particle)
 Thermal correction to Energy=                    0.151148
 Thermal correction to Enthalpy=                  0.152092
 Thermal correction to Gibbs Free Energy=         0.105969
 Sum of electronic and zero-point Energies=           -309.040128
 Sum of electronic and thermal Energies=              -309.030990
 Sum of electronic and thermal Enthalpies=            -309.030046
 Sum of electronic and thermal Free Energies=         -309.076169

                     E (Thermal)             CV                S
                      KCal/Mol        Cal/Mol-Kelvin    Cal/Mol-Kelvin
 Total                   94.847             29.719             97.074
 Electronic               0.000              0.000              1.377
 Translational            0.889              2.981             39.439
 Rotational               0.889              2.981             27.906
 Vibrational             93.069             23.758             28.351
 Vibration     1          0.593              1.985              6.214
 Vibration     2          0.596              1.976              4.641
 Vibration     3          0.599              1.965              3.992
 Vibration     4          0.608              1.937              3.182
 Vibration     5          0.624              1.883              2.467
 Vibration     6          0.660              1.771              1.765
 Vibration     7          0.661              1.767              1.749
 Vibration     8          0.713              1.614              1.255
 Vibration     9          0.815              1.347              0.776
 Vibration    10          0.884              1.185              0.589
 Vibration    11          0.976              0.998              0.423

 Optimization completed.
    -- Stationary point found.

 1\1\GINC-N58\Freq\UB2PLYPD3-FC\CC-pVTZ\C4H11O2(2)\ROOT\07-Jun-2019\0\\
 #N Geom=AllCheck Guess=TCheck SCRF=Check GenChk UB2PLYPD3(FC)/CC-pVTZ
 Freq\\Title Card Required\\0,2\C,1.7579077137,0.1305056473,0.445595173
 1\H,1.2935220836,1.0881196205,0.6839286461\H,1.8161804164,-0.430397286
 8,1.3792143437\C,0.9091266894,-0.6164932629,-0.5427175208\H,0.62988837
 32,-0.0753724071,-1.443322229\H,1.2061886788,-1.6416695302,-0.74522820
 67\C,-2.3553423566,1.0910535429,0.021198806\H,-1.4051619542,1.61353897
 06,-0.1042867222\H,-3.1036702204,1.5234106433,-0.6399105166\H,-2.68126

 Normal termination of Gaussian 16 at Fri Jun  7 16:23:18 2019.
