 Gaussian 16, Revision B.01,
 Gaussian 16:  ES64L-G16RevB.01 20-Dec-2017

 ----------------------------------------------------------------------
 # opt=(calcfc,ts,noeigentest,maxcyc=500,modredundant) uB2PLYPD3/cc-pvt
 z scf=maxcyc=500 nosymm
 ----------------------------------------------------------------------

 -------------------
 Title Card Required
 -------------------
 Symbolic Z-matrix:
 Charge =  0 Multiplicity = 2

 SCF Done:  E(UB2PLYPD3) =  -307.579929212     A.U. after   21 cycles
 E2(B2PLYPD3) =    -0.3835227040D+00 E(B2PLYPD3) =    -0.30796345191563D+03
 E2(B2PLYPD3) =    -0.3835227040D+00 E(B2PLYPD3) =    -0.30796345191563D+03

  Exact polarizability:  96.954  -3.650  74.333   1.861   0.660  51.468
 Approx polarizability:  84.497  -7.663  84.295   3.840   0.104  61.296

 SCF Done:  E(UB2PLYPD3) =  -307.580038484     A.U. after   16 cycles
 E2(B2PLYPD3) =    -0.3839885309D+00 E(B2PLYPD3) =    -0.30796402701500D+03
 SCF Done:  E(UB2PLYPD3) =  -307.580027840     A.U. after   12 cycles
 E2(B2PLYPD3) =    -0.3840080655D+00 E(B2PLYPD3) =    -0.30796403590586D+03
 SCF Done:  E(UB2PLYPD3) =  -307.580038427     A.U. after   10 cycles
 E2(B2PLYPD3) =    -0.3839978624D+00 E(B2PLYPD3) =    -0.30796403628907D+03
 Optimization completed.
    -- Stationary point found.
 SCF Done:  E(UB2PLYPD3) =  -307.579893908     A.U. after   15 cycles
 E2(B2PLYPD3) =    -0.3839982788D+00 E(B2PLYPD3) =    -0.30796389218634D+03
 SCF Done:  E(UB2PLYPD3) =  -307.580110193     A.U. after   14 cycles
 E2(B2PLYPD3) =    -0.3838516592D+00 E(B2PLYPD3) =    -0.30796396185180D+03
 SCF Done:  E(UB2PLYPD3) =  -307.580073449     A.U. after   12 cycles
 E2(B2PLYPD3) =    -0.3838955751D+00 E(B2PLYPD3) =    -0.30796396902439D+03
 SCF Done:  E(UB2PLYPD3) =  -307.580064434     A.U. after   11 cycles
 E2(B2PLYPD3) =    -0.3839051740D+00 E(B2PLYPD3) =    -0.30796396960811D+03
 SCF Done:  E(UB2PLYPD3) =  -307.580066649     A.U. after   10 cycles
 E2(B2PLYPD3) =    -0.3839031215D+00 E(B2PLYPD3) =    -0.30796396977086D+03
 SCF Done:  E(UB2PLYPD3) =  -307.580069795     A.U. after    7 cycles
 E2(B2PLYPD3) =    -0.3838998936D+00 E(B2PLYPD3) =    -0.30796396968848D+03
 Optimization completed.
 E2(B2PLYPD3) =    -0.3838291201D+00 E(B2PLYPD3) =    -0.30796359955394D+03
 E2(B2PLYPD3) =    -0.3836958521D+00 E(B2PLYPD3) =    -0.30796367774925D+03
 E2(B2PLYPD3) =    -0.3837196742D+00 E(B2PLYPD3) =    -0.30796367943606D+03
 E2(B2PLYPD3) =    -0.3837200049D+00 E(B2PLYPD3) =    -0.30796367941075D+03
 E2(B2PLYPD3) =    -0.3837202005D+00 E(B2PLYPD3) =    -0.30796367950552D+03
 E2(B2PLYPD3) =    -0.3835895281D+00 E(B2PLYPD3) =    -0.30796315827641D+03
 E2(B2PLYPD3) =    -0.3834581849D+00 E(B2PLYPD3) =    -0.30796321567060D+03
 E2(B2PLYPD3) =    -0.3834636730D+00 E(B2PLYPD3) =    -0.30796321778657D+03
 E2(B2PLYPD3) =    -0.3834613066D+00 E(B2PLYPD3) =    -0.30796321810155D+03
 E2(B2PLYPD3) =    -0.3835689963D+00 E(B2PLYPD3) =    -0.30796271773862D+03
 E2(B2PLYPD3) =    -0.3837854845D+00 E(B2PLYPD3) =    -0.30796317060439D+03
 E2(B2PLYPD3) =    -0.3838552071D+00 E(B2PLYPD3) =    -0.30796318010044D+03
 E2(B2PLYPD3) =    -0.3838364246D+00 E(B2PLYPD3) =    -0.30796318022564D+03
 E2(B2PLYPD3) =    -0.3840339774D+00 E(B2PLYPD3) =    -0.30796358284934D+03
 E2(B2PLYPD3) =    -0.3839613320D+00 E(B2PLYPD3) =    -0.30796359161969D+03
 E2(B2PLYPD3) =    -0.3839789203D+00 E(B2PLYPD3) =    -0.30796359250680D+03
 E2(B2PLYPD3) =    -0.3839812112D+00 E(B2PLYPD3) =    -0.30796359243958D+03
 E2(B2PLYPD3) =    -0.3841239674D+00 E(B2PLYPD3) =    -0.30796385705162D+03
 E2(B2PLYPD3) =    -0.3838974787D+00 E(B2PLYPD3) =    -0.30796387908891D+03
 SCF Done:  E(UB2PLYPD3) =  -307.579261118     A.U. after   15 cycles
 E2(B2PLYPD3) =    -0.3842520761D+00 E(B2PLYPD3) =    -0.30796351319362D+03
 SCF Done:  E(UB2PLYPD3) =  -307.579885599     A.U. after   15 cycles
 E2(B2PLYPD3) =    -0.3840060140D+00 E(B2PLYPD3) =    -0.30796389161334D+03
 SCF Done:  E(UB2PLYPD3) =  -307.579872686     A.U. after   12 cycles
 E2(B2PLYPD3) =    -0.3840217554D+00 E(B2PLYPD3) =    -0.30796389444127D+03
 SCF Done:  E(UB2PLYPD3) =  -307.579885171     A.U. after   10 cycles
 E2(B2PLYPD3) =    -0.3840092876D+00 E(B2PLYPD3) =    -0.30796389445848D+03
    -- Stationary point found.
 SCF Done:  E(UB2PLYPD3) =  -307.579888836     A.U. after   15 cycles
 E2(B2PLYPD3) =    -0.3840873582D+00 E(B2PLYPD3) =    -0.30796397619467D+03
 SCF Done:  E(UB2PLYPD3) =  -307.580087321     A.U. after   16 cycles
 E2(B2PLYPD3) =    -0.3839327038D+00 E(B2PLYPD3) =    -0.30796402002469D+03
 SCF Done:  E(UB2PLYPD3) =  -307.580072906     A.U. after   14 cycles
 E2(B2PLYPD3) =    -0.3839614394D+00 E(B2PLYPD3) =    -0.30796403434584D+03
 SCF Done:  E(UB2PLYPD3) =  -307.580049915     A.U. after   13 cycles
 E2(B2PLYPD3) =    -0.3839887157D+00 E(B2PLYPD3) =    -0.30796403863054D+03
 SCF Done:  E(UB2PLYPD3) =  -307.580049933     A.U. after   11 cycles
 E2(B2PLYPD3) =    -0.3839888376D+00 E(B2PLYPD3) =    -0.30796403877054D+03
 SCF Done:  E(UB2PLYPD3) =  -307.580046855     A.U. after    7 cycles
 E2(B2PLYPD3) =    -0.3839920143D+00 E(B2PLYPD3) =    -0.30796403886954D+03
 Optimization completed.
    -- Stationary point found.

                          Input orientation:
 ---------------------------------------------------------------------
 Center     Atomic      Atomic             Coordinates (Angstroms)
 Number     Number       Type             X           Y           Z
 ---------------------------------------------------------------------
      1          6           0       -1.257784    0.329481    1.170462
      2          1           0       -1.625923    0.998680    1.941184
      3          1           0       -1.193293   -0.706854    1.486655
      4          6           0        1.815935   -0.092690   -0.890016
      5          1           0        1.156293   -0.922506   -0.639080
      6          1           0        1.916616   -0.010819   -1.969861
      7          1           0        2.789947   -0.235825   -0.426009
      8          8           0        1.247103    1.143706   -0.469748
      9          8           0        1.137962    1.119823    0.918691
     10          1           0       -0.007118    0.726732    1.103957
     11          6           0       -1.749013    0.556175   -0.169527
     12          6           0       -1.867968   -0.398401   -1.106853
     13          1           0       -1.990903    1.577272   -0.437367
     14          1           0       -1.631232   -1.430893   -0.887052
     15          1           0       -2.213272   -0.170277   -2.103661
 ---------------------------------------------------------------------

 Alpha  occ. eigenvalues --  -19.78967 -19.78398 -10.65905 -10.63289 -10.63096
 Alpha  occ. eigenvalues --  -10.62559  -1.27961  -1.01313  -0.92591  -0.81113
 Alpha  occ. eigenvalues --   -0.77386  -0.65668  -0.60601  -0.56425  -0.55583
 Alpha  occ. eigenvalues --   -0.54601  -0.51423  -0.49936  -0.46229  -0.44265
 Alpha  occ. eigenvalues --   -0.43076  -0.40013  -0.36284  -0.34892  -0.28231
 Alpha virt. eigenvalues --    0.06446   0.07920   0.10183   0.11327   0.12124
 Alpha virt. eigenvalues --    0.13689   0.15472   0.16016   0.16522   0.18620
 Alpha virt. eigenvalues --    0.20760   0.23648   0.27246   0.28873   0.30175

  Beta  occ. eigenvalues --  -19.78689 -19.76675 -10.65918 -10.63555 -10.62328
  Beta  occ. eigenvalues --  -10.61876  -1.25857  -0.98172  -0.91761  -0.78630
  Beta  occ. eigenvalues --   -0.76679  -0.65170  -0.57421  -0.55681  -0.54364
  Beta  occ. eigenvalues --   -0.54232  -0.50989  -0.47021  -0.45647  -0.43445
  Beta  occ. eigenvalues --   -0.42645  -0.36070  -0.34906  -0.30388
  Beta virt. eigenvalues --   -0.05761   0.07405   0.08230   0.10243   0.11727
  Beta virt. eigenvalues --    0.12455   0.14256   0.15545   0.16110   0.16779
  Beta virt. eigenvalues --    0.18840   0.21553   0.23751   0.28081   0.29551

 Mulliken charges and spin densities:
               1          2
     1  C   -0.302611   0.466997
     2  H    0.124661  -0.012444
     3  H    0.110525  -0.011372
     4  C   -0.057364  -0.007538
     5  H    0.069086   0.004226
     6  H    0.095076  -0.000928
     7  H    0.096832   0.001516
     8  O   -0.177247   0.053310
     9  O   -0.223104   0.451954
    10  H    0.213821  -0.078790
    11  C   -0.051523  -0.265367
    12  C   -0.301107   0.424066
    13  H    0.143257   0.008946
    14  H    0.127532  -0.016133
    15  H    0.132163  -0.018445
 Sum of Mulliken charges =  -0.00000   1.00000

 Dipole moment (field-independent basis, Debye):
    X=             -1.1094    Y=             -1.8737    Z=             -0.7960  Tot=              2.3184
 Quadrupole moment (field-independent basis, Debye-Ang):
   XX=            -37.8576   YY=            -39.4833   ZZ=            -35.9035
   XY=             -4.0584   XZ=             -2.3038   YZ=              0.2137

 Normal termination of Gaussian 16 at Fri Jun 14 21:17:54 2019.
