 Gaussian 16, Revision B.01,
 Gaussian 16:  ES64L-G16RevB.01 20-Dec-2017

 ----------------------------------------------------------------------
 # opt=(calcfc,ts,noeigentest,maxcyc=500) freq=noraman uB2PLYPD3/cc-pvt
 z
 ----------------------------------------------------------------------

 -------------------
 Title Card Required
 -------------------
 Symbolic Z-matrix:
 Charge =  0 Multiplicity = 2

 SCF Done:  E(UB2PLYPD3) =  -307.580069322     A.U. after   21 cycles
 E2(B2PLYPD3) =    -0.3839000111D+00 E(B2PLYPD3) =    -0.30796396933357D+03
 E2(B2PLYPD3) =    -0.3839000111D+00 E(B2PLYPD3) =    -0.30796396933357D+03
 SCF Done:  E(UB2PLYPD3) =  -307.580057918     A.U. after   16 cycles
 E2(B2PLYPD3) =    -0.3839826456D+00 E(B2PLYPD3) =    -0.30796404056314D+03
 SCF Done:  E(UB2PLYPD3) =  -307.580059509     A.U. after   12 cycles
 E2(B2PLYPD3) =    -0.3839816671D+00 E(B2PLYPD3) =    -0.30796404117605D+03
 SCF Done:  E(UB2PLYPD3) =  -307.580058614     A.U. after   10 cycles
 E2(B2PLYPD3) =    -0.3839825779D+00 E(B2PLYPD3) =    -0.30796404119165D+03
 Optimization completed.
    -- Stationary point found.
 Normal termination of Gaussian 16 at Mon Jun 24 17:13:24 2019.

 ----------------------------------------------------------------------
 #N Geom=AllCheck Guess=TCheck SCRF=Check GenChk UB2PLYPD3(FC)/CC-pVTZ
 Freq
 ----------------------------------------------------------------------

 Structure from the checkpoint file:  "/localscratch/353444/Gau-3776.chk"
 -------------------
 Title Card Required
 -------------------
 Charge =  0 Multiplicity = 2

                         Standard orientation:
 ---------------------------------------------------------------------
 Center     Atomic      Atomic             Coordinates (Angstroms)
 Number     Number       Type             X           Y           Z
 ---------------------------------------------------------------------
      1          6           0        1.260245   -1.149911    0.411787
      2          1           0        1.547629   -2.135155    0.059580
      3          1           0        1.373295   -1.019214    1.483370
      4          6           0       -1.787944    1.004347    0.374250
      5          1           0       -1.006195    1.112079    1.125050
      6          1           0       -1.932124    1.945912   -0.150710
      7          1           0       -2.716011    0.683777    0.843761
      8          8           0       -1.394996    0.070860   -0.627552
      9          8           0       -1.237476   -1.173241   -0.021125
     10          1           0       -0.038768   -1.214118    0.228426
     11          6           0        1.657088   -0.029763   -0.410614
     12          6           0        1.890794    1.208692    0.053732
     13          1           0        1.723563   -0.203382   -1.477508
     14          1           0        1.829765    1.430626    1.110819
     15          1           0        2.157524    2.018327   -0.608298
 ---------------------------------------------------------------------

 SCF Done:  E(UB2PLYPD3) =  -307.580058614     A.U. after    1 cycles
 E2(B2PLYPD3) =    -0.3839825771D+00 E(B2PLYPD3) =    -0.30796404119091D+03
 E2(B2PLYPD3) =    -0.3839825771D+00 E(B2PLYPD3) =    -0.30796404119091D+03

 The electronic state is 2-A.
 Alpha  occ. eigenvalues --  -19.78966 -19.78407 -10.65892 -10.63285 -10.63097
 Alpha  occ. eigenvalues --  -10.62565  -1.27959  -1.01310  -0.92591  -0.81112
 Alpha  occ. eigenvalues --   -0.77378  -0.65666  -0.60607  -0.56409  -0.55592
 Alpha  occ. eigenvalues --   -0.54591  -0.51419  -0.49934  -0.46231  -0.44261
 Alpha  occ. eigenvalues --   -0.43078  -0.40013  -0.36299  -0.34865  -0.28253
 Alpha virt. eigenvalues --    0.06444   0.07940   0.10210   0.11296   0.12115
 Alpha virt. eigenvalues --    0.13680   0.15476   0.16053   0.16525   0.18653
 Alpha virt. eigenvalues --    0.20715   0.23643   0.27239   0.28842   0.30165

  Beta  occ. eigenvalues --  -19.78691 -19.76682 -10.65905 -10.63557 -10.62324
  Beta  occ. eigenvalues --  -10.61882  -1.25854  -0.98166  -0.91763  -0.78623
  Beta  occ. eigenvalues --   -0.76679  -0.65169  -0.57421  -0.55674  -0.54365
  Beta  occ. eigenvalues --   -0.54222  -0.50985  -0.47017  -0.45649  -0.43442
  Beta  occ. eigenvalues --   -0.42647  -0.36085  -0.34902  -0.30385
  Beta virt. eigenvalues --   -0.05776   0.07405   0.08253   0.10267   0.11707
  Beta virt. eigenvalues --    0.12440   0.14243   0.15552   0.16146   0.16780
  Beta virt. eigenvalues --    0.18878   0.21507   0.23744   0.28052   0.29544

 Mulliken charges and spin densities:
               1          2
     1  C   -0.300927   0.466545
     2  H    0.124349  -0.012425
     3  H    0.110266  -0.011338
     4  C   -0.057112  -0.007466
     5  H    0.069502   0.004317
     6  H    0.094845  -0.000947
     7  H    0.096775   0.001465
     8  O   -0.177762   0.052758
     9  O   -0.222842   0.452825
    10  H    0.213648  -0.078770
    11  C   -0.052823  -0.265685
    12  C   -0.301622   0.424389
    13  H    0.143574   0.008954
    14  H    0.127819  -0.016172
    15  H    0.132308  -0.018449
 Sum of Mulliken charges =  -0.00000   1.00000

 Dipole moment (field-independent basis, Debye):
    X=              1.3503    Y=              1.4882    Z=              1.1501  Tot=              2.3153
 Quadrupole moment (field-independent basis, Debye-Ang):
   XX=            -38.8813   YY=            -35.8523   ZZ=            -37.2121
   XY=             -3.7213   XZ=             -2.0826   YZ=              0.1322

  Exact polarizability:  99.102   4.651  74.908   1.795  -0.499  51.584
 Approx polarizability:  84.526   7.931  84.905   3.384  -0.155  61.290

 ******    1 imaginary frequencies (negative Signs) ******

                      1                      2                      3
                      A                      A                      A
 Frequencies --  -1981.2176                48.7899                79.0941
 Red. masses --      1.1263                 2.8543                 3.7473
 Frc consts  --      2.6048                 0.0040                 0.0138
 IR Inten    --   2289.2074                 2.3788                 0.0916

                      4                      5                      6
                      A                      A                      A
 Frequencies --    123.9135               141.7345               200.0885
 Red. masses --      3.1536                 1.9689                 1.2146
 Frc consts  --      0.0285                 0.0233                 0.0287
 IR Inten    --      3.8531                 1.0444                 2.3102

                      7                      8                      9
                      A                      A                      A
 Frequencies --    314.9576               417.7879               463.6612
 Red. masses --      2.9245                 1.8639                 2.8244
 Frc consts  --      0.1709                 0.1917                 0.3577
 IR Inten    --      0.9244                 0.8924                 2.8037

                     10                     11                     12
                      A                      A                      A
 Frequencies --    545.4011               549.9061               652.0385
 Red. masses --      1.4110                 2.9029                 1.4088
 Frc consts  --      0.2473                 0.5172                 0.3529
 IR Inten    --      5.2457                 8.2392                26.2192

                     13                     14                     15
                      A                      A                      A
 Frequencies --    930.3086               936.0822               954.6265
 Red. masses --      3.8227                 1.4561                 1.1724
 Frc consts  --      1.9493                 0.7517                 0.6295
 IR Inten    --     14.2740                42.6259                 1.3763

                     16                     17                     18
                      A                      A                      A
 Frequencies --   1000.1019              1028.1777              1048.2649
 Red. masses --      1.8461                 1.1814                 4.8011
 Frc consts  --      1.0879                 0.7358                 3.1084
 IR Inten    --      2.3877                 5.4943                56.8411

                     19                     20                     21
                      A                      A                      A
 Frequencies --   1095.6503              1173.2307              1195.7218
 Red. masses --      1.5781                 1.2694                 1.1200
 Frc consts  --      1.1162                 1.0294                 0.9435
 IR Inten    --     15.9413                 2.9416                11.0375

                     22                     23                     24
                      A                      A                      A
 Frequencies --   1214.0335              1220.7543              1333.3901
 Red. masses --      1.5541                 1.6837                 1.3477
 Frc consts  --      1.3496                 1.4783                 1.4117
 IR Inten    --      5.6314                 0.9485                 1.6748

                     25                     26                     27
                      A                      A                      A
 Frequencies --   1445.6554              1451.0419              1457.0087
 Red. masses --      1.0814                 1.1420                 1.1471
 Frc consts  --      1.3315                 1.4166                 1.4347
 IR Inten    --      5.4335                20.6930                 5.2489

                     28                     29                     30
                      A                      A                      A
 Frequencies --   1482.2806              1501.0143              1511.9107
 Red. masses --      1.0503                 1.2446                 1.0501
 Frc consts  --      1.3596                 1.6522                 1.4143
 IR Inten    --      5.5095                 5.9778                 8.5943

                     31                     32                     33
                      A                      A                      A
 Frequencies --   1648.0539              3047.5137              3107.4101
 Red. masses --      3.3087                 1.0279                 1.0538
 Frc consts  --      5.2949                 5.6248                 5.9953
 IR Inten    --      7.7897                41.2004                10.1401

                     34                     35                     36
                      A                      A                      A
 Frequencies --   3127.0015              3150.8648              3157.7989
 Red. masses --      1.1068                 1.1052                 1.0573
 Frc consts  --      6.3765                 6.4645                 6.2120
 IR Inten    --     31.4913                13.5009                 7.0532

                     37                     38                     39
                      A                      A                      A
 Frequencies --   3172.8221              3195.0867              3253.4726
 Red. masses --      1.0938                 1.1088                 1.1158
 Frc consts  --      6.4873                 6.6690                 6.9586
 IR Inten    --      3.6303                10.8587                 9.0396

 - Thermochemistry -
 -------------------
 Temperature   298.150 Kelvin.  Pressure   1.00000 Atm.
 Atom     1 has atomic number  6 and mass  12.00000

 Molecular mass:    89.06025 amu.
 Principal axes and moments of inertia in atomic units:
                           1         2         3
     Eigenvalues --   379.65524 845.140991081.45172
           X            0.99927  -0.03550  -0.01404
           Y            0.03560   0.99935   0.00631
           Z            0.01381  -0.00681   0.99988
 This molecule is an asymmetric top.
 Rotational symmetry number  1.
 Rotational temperatures (Kelvin)      0.22814     0.10248     0.08009
 Rotational constants (GHZ):           4.75363     2.13543     1.66881
    1 imaginary frequencies ignored.
 Zero-point vibrational energy     313281.9 (Joules/Mol)
                                   74.87618 (Kcal/Mol)
 Warning -- explicit consideration of  10 degrees of freedom as
           vibrations may cause significant error
 Vibrational temperatures:     70.20   113.80   178.28   203.92   287.88
          (Kelvin)            453.15   601.10   667.11   784.71   791.19
                              938.14  1338.51  1346.81  1373.49  1438.92
                             1479.32  1508.22  1576.40  1688.02  1720.38
                             1746.72  1756.39  1918.45  2079.98  2087.73
                             2096.31  2132.67  2159.62  2175.30  2371.18
                             4384.69  4470.87  4499.06  4533.39  4543.37
                             4564.98  4597.02  4681.02

 Zero-point correction=                           0.119323 (Hartree/Particle)
 Thermal correction to Energy=                    0.127516
 Thermal correction to Enthalpy=                  0.128460
 Thermal correction to Gibbs Free Energy=         0.085590
 Sum of electronic and zero-point Energies=           -307.844718
 Sum of electronic and thermal Energies=              -307.836525
 Sum of electronic and thermal Enthalpies=            -307.835581
 Sum of electronic and thermal Free Energies=         -307.878451

                     E (Thermal)             CV                S
                      KCal/Mol        Cal/Mol-Kelvin    Cal/Mol-Kelvin
 Total                   80.018             27.370             90.228
 Electronic               0.000              0.000              1.377
 Translational            0.889              2.981             39.373
 Rotational               0.889              2.981             27.342
 Vibrational             78.240             21.408             22.136
 Vibration     1          0.595              1.978              4.866
 Vibration     2          0.600              1.963              3.913
 Vibration     3          0.610              1.929              3.038
 Vibration     4          0.615              1.912              2.780
 Vibration     5          0.638              1.840              2.132
 Vibration     6          0.702              1.645              1.336
 Vibration     7          0.781              1.432              0.900
 Vibration     8          0.821              1.331              0.756
 Vibration     9          0.901              1.150              0.554
 Vibration    10          0.905              1.140              0.544

 Optimization completed.
    -- Stationary point found.

 1\1\GINC-N144\Freq\UB2PLYPD3-FC\CC-pVTZ\C4H9O2(2)\ROOT\24-Jun-2019\0\\
 #N Geom=AllCheck Guess=TCheck SCRF=Check GenChk UB2PLYPD3(FC)/CC-pVTZ
 Freq\\Title Card Required\\0,2\C,-1.2359635388,-1.1806335293,-0.416123
 5405\H,-1.4929698604,-2.1755445817,-0.0676359207\H,-1.3628001926,-1.04
 63972193,-1.4857241701\C,1.7525311431,1.0558981197,-0.39327458\H,0.960
 9758185,1.146891504,-1.1359711457\H,1.8759905403,1.9977619584,0.136410
 1663\H,2.6844581768,0.7637598075,-0.873567373\O,1.3948164967,0.1057860
 509,0.606095945\O,1.2654975316,-1.1383516684,-0.0068900575\H,0.0660145

 Normal termination of Gaussian 16 at Mon Jun 24 18:11:51 2019.
