 Gaussian 16, Revision B.01,
 Gaussian 16:  ES64L-G16RevB.01 20-Dec-2017

 ----------------------------------------------------------------------
 # opt=(calcfc,ts,noeigentest,maxcyc=500) freq=noraman uB2PLYPD3/cc-pvt
 z
 ----------------------------------------------------------------------

 -------------------
 Title Card Required
 -------------------
 Symbolic Z-matrix:
 Charge =  0 Multiplicity = 2

 SCF Done:  E(UB2PLYPD3) =  -308.795422637     A.U. after   19 cycles
 E2(B2PLYPD3) =    -0.3929286758D+00 E(B2PLYPD3) =    -0.30918835131283D+03
 E2(B2PLYPD3) =    -0.3929286758D+00 E(B2PLYPD3) =    -0.30918835131283D+03
 SCF Done:  E(UB2PLYPD3) =  -308.795408640     A.U. after   16 cycles
 E2(B2PLYPD3) =    -0.3930002497D+00 E(B2PLYPD3) =    -0.30918840888970D+03
 SCF Done:  E(UB2PLYPD3) =  -308.795416781     A.U. after   12 cycles
 E2(B2PLYPD3) =    -0.3929997210D+00 E(B2PLYPD3) =    -0.30918841650234D+03
 SCF Done:  E(UB2PLYPD3) =  -308.795147685     A.U. after   18 cycles
 E2(B2PLYPD3) =    -0.3931878186D+00 E(B2PLYPD3) =    -0.30918833550348D+03
 SCF Done:  E(UB2PLYPD3) =  -308.795294498     A.U. after   15 cycles
 E2(B2PLYPD3) =    -0.3930132896D+00 E(B2PLYPD3) =    -0.30918830778779D+03
 SCF Done:  E(UB2PLYPD3) =  -308.794103081     A.U. after   18 cycles
 E2(B2PLYPD3) =    -0.3935131055D+00 E(B2PLYPD3) =    -0.30918761618599D+03
 SCF Done:  E(UB2PLYPD3) =  -308.793734863     A.U. after   18 cycles
 E2(B2PLYPD3) =    -0.3926299356D+00 E(B2PLYPD3) =    -0.30918636479899D+03
 SCF Done:  E(UB2PLYPD3) =  -308.794999159     A.U. after   15 cycles
 E2(B2PLYPD3) =    -0.3928212318D+00 E(B2PLYPD3) =    -0.30918782039039D+03
 SCF Done:  E(UB2PLYPD3) =  -308.794217211     A.U. after   16 cycles
 E2(B2PLYPD3) =    -0.3933760671D+00 E(B2PLYPD3) =    -0.30918759327830D+03
 SCF Done:  E(UB2PLYPD3) =  -308.794260478     A.U. after   18 cycles
 E2(B2PLYPD3) =    -0.3929625399D+00 E(B2PLYPD3) =    -0.30918722301776D+03
 SCF Done:  E(UB2PLYPD3) =  -308.795101324     A.U. after   18 cycles
 E2(B2PLYPD3) =    -0.3931855794D+00 E(B2PLYPD3) =    -0.30918828690334D+03
 SCF Done:  E(UB2PLYPD3) =  -308.795237710     A.U. after   14 cycles
 E2(B2PLYPD3) =    -0.3931365577D+00 E(B2PLYPD3) =    -0.30918837426801D+03
 SCF Done:  E(UB2PLYPD3) =  -308.795307679     A.U. after   12 cycles
 E2(B2PLYPD3) =    -0.3930976919D+00 E(B2PLYPD3) =    -0.30918840537107D+03
 SCF Done:  E(UB2PLYPD3) =  -308.795316269     A.U. after   12 cycles
 E2(B2PLYPD3) =    -0.3930910049D+00 E(B2PLYPD3) =    -0.30918840727433D+03
 SCF Done:  E(UB2PLYPD3) =  -308.795496516     A.U. after   18 cycles
 E2(B2PLYPD3) =    -0.3928772732D+00 E(B2PLYPD3) =    -0.30918837378902D+03
 SCF Done:  E(UB2PLYPD3) =  -308.795393118     A.U. after   16 cycles
 E2(B2PLYPD3) =    -0.3930240336D+00 E(B2PLYPD3) =    -0.30918841715188D+03
 SCF Done:  E(UB2PLYPD3) =  -308.795395239     A.U. after   10 cycles
 E2(B2PLYPD3) =    -0.3930226397D+00 E(B2PLYPD3) =    -0.30918841787843D+03
 SCF Done:  E(UB2PLYPD3) =  -308.795395246     A.U. after   10 cycles
 E2(B2PLYPD3) =    -0.3930226621D+00 E(B2PLYPD3) =    -0.30918841790844D+03
 SCF Done:  E(UB2PLYPD3) =  -308.795397272     A.U. after   11 cycles
 E2(B2PLYPD3) =    -0.3930206526D+00 E(B2PLYPD3) =    -0.30918841792450D+03
 Optimization completed on the basis of negligible forces.
    -- Stationary point found.

 1\1\GINC-N144\FTS\UB2PLYPD3-FC\CC-pVTZ\C4H11O2(2)\ROOT\25-Jun-2019\0\\
 # opt=(calcfc,ts,noeigentest,maxcyc=500) freq=noraman uB2PLYPD3/cc-pvt
 z\\Title Card Required\\0,2\C,1.5499506197,-0.581935454,0.9417957758\H
 ,0.960780372,-1.4870693028,1.0757531882\H,2.6067166599,-0.8629747447,1
 .0020999694\C,1.2625600362,0.0890154872,-0.3723328923\H,1.2347180776,-
 0.5883750437,-1.2237543874\C,-2.1981112919,-0.944853316,0.8175305921\H
 ,-1.5223053217,-1.6623840205,0.3491892828\H,-2.5383333886,-1.328126247
 8,1.7774621951\H,-3.0478961593,-0.758681167,0.1629630628\O,-1.52139208

 Normal termination of Gaussian 16 at Tue Jun 25 03:13:46 2019.

 ----------------------------------------------------------------------
 #N Geom=AllCheck Guess=TCheck SCRF=Check GenChk UB2PLYPD3(FC)/CC-pVTZ
 Freq
 ----------------------------------------------------------------------

 Structure from the checkpoint file:  "/localscratch/353444/Gau-67126.chk"
 -------------------
 Title Card Required
 -------------------
 Charge =  0 Multiplicity = 2

                         Standard orientation:
 ---------------------------------------------------------------------
 Center     Atomic      Atomic             Coordinates (Angstroms)
 Number     Number       Type             X           Y           Z
 ---------------------------------------------------------------------
      1          6           0        1.096206    1.452551   -0.216538
      2          1           0        0.281765    2.019683    0.229983
      3          1           0        1.994952    2.077111   -0.177103
      4          6           0        1.333949    0.150385    0.495883
      5          1           0        1.352202    0.231090    1.581105
      6          6           0       -2.460843    0.345182    0.345828
      7          1           0       -1.894051    0.903532    1.092755
      8          1           0       -3.120454    1.018212   -0.198287
      9          1           0       -3.039308   -0.437985    0.832942
     10          8           0       -1.596570   -0.208212   -0.635669
     11          8           0       -0.770420   -1.151892    0.004130
     12          1           0        0.206547   -0.539958    0.292935
     13          1           0        0.857176    1.286056   -1.266380
     14          6           0        2.403205   -0.743274   -0.070990
     15          1           0        2.437203   -1.705041    0.437517
     16          1           0        2.236437   -0.923464   -1.132485
     17          1           0        3.388348   -0.277467    0.034227
 ---------------------------------------------------------------------

 SCF Done:  E(UB2PLYPD3) =  -308.795397272     A.U. after    1 cycles
 E2(B2PLYPD3) =    -0.3930206532D+00 E(B2PLYPD3) =    -0.30918841792511D+03
 E2(B2PLYPD3) =    -0.3930206532D+00 E(B2PLYPD3) =    -0.30918841792511D+03

 The electronic state is 2-A.
 Alpha  occ. eigenvalues --  -19.78338 -19.78015 -10.65860 -10.63986 -10.61099
 Alpha  occ. eigenvalues --  -10.61092  -1.26993  -1.01598  -0.91875  -0.80271
 Alpha  occ. eigenvalues --   -0.77450  -0.69110  -0.60582  -0.55513  -0.54369
 Alpha  occ. eigenvalues --   -0.53448  -0.51602  -0.48260  -0.47916  -0.45975
 Alpha  occ. eigenvalues --   -0.43796  -0.42142  -0.41731  -0.36417  -0.36199
 Alpha  occ. eigenvalues --   -0.28859
 Alpha virt. eigenvalues --    0.07370   0.09445   0.10959   0.11949   0.14029
 Alpha virt. eigenvalues --    0.14323   0.15198   0.15772   0.16412   0.18550
 Alpha virt. eigenvalues --    0.19247   0.19581   0.22836   0.26492   0.27678

  Beta  occ. eigenvalues --  -19.78182 -19.76326 -10.65869 -10.62777 -10.61154
  Beta  occ. eigenvalues --  -10.61147  -1.25071  -0.98570  -0.89973  -0.80082
  Beta  occ. eigenvalues --   -0.77026  -0.66590  -0.57359  -0.54359  -0.53952
  Beta  occ. eigenvalues --   -0.52902  -0.50077  -0.47694  -0.45451  -0.44302
  Beta  occ. eigenvalues --   -0.42810  -0.41776  -0.41317  -0.34929  -0.32924
  Beta virt. eigenvalues --   -0.03754   0.07478   0.09518   0.11203   0.12155
  Beta virt. eigenvalues --    0.14250   0.14858   0.15344   0.15863   0.16483
  Beta virt. eigenvalues --    0.18712   0.19692   0.19795   0.23357   0.26969

 Mulliken charges and spin densities:
               1          2
     1  C   -0.299209  -0.029570
     2  H    0.106483   0.003013
     3  H    0.102693   0.041263
     4  C   -0.149835   0.579077
     5  H    0.113272  -0.006734
     6  C   -0.059176  -0.003937
     7  H    0.065660   0.001270
     8  H    0.096059  -0.000999
     9  H    0.093993   0.001999
    10  O   -0.191075   0.026956
    11  O   -0.232050   0.433454
    12  H    0.211945  -0.070700
    13  H    0.116134   0.007375
    14  C   -0.291410  -0.027685
    15  H    0.111180   0.003321
    16  H    0.107018   0.005395
    17  H    0.098316   0.036502
 Sum of Mulliken charges =   0.00000   1.00000

 Dipole moment (field-independent basis, Debye):
    X=              0.7877    Y=              1.7999    Z=              1.3027  Tot=              2.3574
 Quadrupole moment (field-independent basis, Debye-Ang):
   XX=            -34.3139   YY=            -40.7332   ZZ=            -39.8070
   XY=             -2.4701   XZ=             -1.6017   YZ=             -0.2652

  Exact polarizability: 102.232   3.120  63.691   2.530  -0.417  53.852
 Approx polarizability:  84.843   2.921  70.232   4.946  -0.443  64.296

 ******    1 imaginary frequencies (negative Signs) ******

                      1                      2                      3
                      A                      A                      A
 Frequencies --  -1877.1373                13.8267                87.8813
 Red. masses --      1.1098                 3.1334                 2.9772
 Frc consts  --      2.3040                 0.0004                 0.0135
 IR Inten    --   1959.5371                 2.2981                 1.6950

                      4                      5                      6
                      A                      A                      A
 Frequencies --    118.1473               138.4501               176.2669
 Red. masses --      2.2264                 1.9904                 1.1283
 Frc consts  --      0.0183                 0.0225                 0.0207
 IR Inten    --      2.8382                 1.2387                 0.0855

                      7                      8                      9
                      A                      A                      A
 Frequencies --    194.5683               222.9015               321.8325
 Red. masses --      1.2272                 1.2923                 2.9045
 Frc consts  --      0.0274                 0.0378                 0.1772
 IR Inten    --      0.3228                 1.7388                 0.8136

                     10                     11                     12
                      A                      A                      A
 Frequencies --    371.0006               466.7376               545.4011
 Red. masses --      2.0646                 3.6577                 3.5812
 Frc consts  --      0.1674                 0.4695                 0.6276
 IR Inten    --      0.3086                 5.8323                 1.1318

                     13                     14                     15
                      A                      A                      A
 Frequencies --    789.0374               895.4423               918.3752
 Red. masses --      1.0880                 2.5418                 4.5681
 Frc consts  --      0.3991                 1.2008                 2.2700
 IR Inten    --     12.4027                 0.3376                 9.3012

                     16                     17                     18
                      A                      A                      A
 Frequencies --    938.4338               947.8891              1055.6668
 Red. masses --      1.1477                 1.2785                 7.6082
 Frc consts  --      0.5955                 0.6768                 4.9955
 IR Inten    --      0.9047                 0.2225                46.8856

                     19                     20                     21
                      A                      A                      A
 Frequencies --   1114.8440              1136.8494              1177.8606
 Red. masses --      1.4139                 1.8026                 1.2757
 Frc consts  --      1.0354                 1.3727                 1.0427
 IR Inten    --     17.5858                 6.8173                 1.1271

                     22                     23                     24
                      A                      A                      A
 Frequencies --   1200.1135              1208.8483              1224.0236
 Red. masses --      1.8375                 1.5197                 1.5073
 Frc consts  --      1.5592                 1.3085                 1.3305
 IR Inten    --      1.9193                 7.9887                11.2322

                     25                     26                     27
                      A                      A                      A
 Frequencies --   1365.3067              1410.5167              1421.3427
 Red. masses --      1.3255                 1.2855                 1.2195
 Frc consts  --      1.4558                 1.5069                 1.4516
 IR Inten    --      3.7977                11.6392                 5.1671

                     28                     29                     30
                      A                      A                      A
 Frequencies --   1457.3120              1465.4470              1481.6055
 Red. masses --      1.1393                 1.0949                 1.0503
 Frc consts  --      1.4256                 1.3853                 1.3584
 IR Inten    --      3.9473                 1.4917                 7.3151

                     31                     32                     33
                      A                      A                      A
 Frequencies --   1489.9052              1491.2974              1500.5346
 Red. masses --      1.0510                 1.0617                 1.0425
 Frc consts  --      1.3746                 1.3911                 1.3830
 IR Inten    --      0.4416                 2.4581                 8.2193

                     34                     35                     36
                      A                      A                      A
 Frequencies --   1509.0633              1518.6616              3015.0670
 Red. masses --      1.0534                 1.0511                 1.0483
 Frc consts  --      1.4134                 1.4283                 5.6145
 IR Inten    --      6.6066                10.4852                12.0125

                     37                     38                     39
                      A                      A                      A
 Frequencies --   3019.9016              3034.9428              3090.9002
 Red. masses --      1.0471                 1.0310                 1.0848
 Frc consts  --      5.6266                 5.5953                 6.1060
 IR Inten    --     38.9321                40.1906                 8.4136

                     40                     41                     42
                      A                      A                      A
 Frequencies --   3092.1956              3102.1597              3111.4539
 Red. masses --      1.0845                 1.0860                 1.1031
 Frc consts  --      6.1098                 6.1575                 6.2923
 IR Inten    --      9.5593                12.0794                42.3485

                     43                     44                     45
                      A                      A                      A
 Frequencies --   3129.1109              3134.8406              3143.9875
 Red. masses --      1.1020                 1.1003                 1.1049
 Frc consts  --      6.3574                 6.3708                 6.4346
 IR Inten    --     16.5158                37.1049                16.4042

 - Thermochemistry -
 -------------------
 Temperature   298.150 Kelvin.  Pressure   1.00000 Atm.
 Atom     1 has atomic number  6 and mass  12.00000

 Molecular mass:    91.07590 amu.
 Principal axes and moments of inertia in atomic units:
                           1         2         3
     Eigenvalues --   324.360811068.095511256.05038
           X            0.99963  -0.02167  -0.01665
           Y            0.02153   0.99973  -0.00884
           Z            0.01683   0.00847   0.99982
 This molecule is an asymmetric top.
 Rotational symmetry number  1.
 Rotational temperatures (Kelvin)      0.26703     0.08109     0.06896
 Rotational constants (GHZ):           5.56399     1.68968     1.43684
    1 imaginary frequencies ignored.
 Zero-point vibrational energy     372337.4 (Joules/Mol)
                                   88.99077 (Kcal/Mol)
 Warning -- explicit consideration of  11 degrees of freedom as
           vibrations may cause significant error
 Vibrational temperatures:     19.89   126.44   169.99   199.20   253.61
          (Kelvin)            279.94   320.71   463.05   533.79   671.53
                              784.71  1135.25  1288.34  1321.34  1350.20
                             1363.80  1518.87  1604.01  1635.67  1694.68
                             1726.70  1739.26  1761.10  1964.37  2029.42
                             2045.00  2096.75  2108.45  2131.70  2143.64
                             2145.64  2158.93  2171.21  2185.02  4338.01
                             4344.96  4366.61  4447.12  4448.98  4463.32
                             4476.69  4502.09  4510.34  4523.50

 Zero-point correction=                           0.141816 (Hartree/Particle)
 Thermal correction to Energy=                    0.151036
 Thermal correction to Enthalpy=                  0.151980
 Thermal correction to Gibbs Free Energy=         0.105985
 Sum of electronic and zero-point Energies=           -309.046602
 Sum of electronic and thermal Energies=              -309.037382
 Sum of electronic and thermal Enthalpies=            -309.036438
 Sum of electronic and thermal Free Energies=         -309.082433

                     E (Thermal)             CV                S
                      KCal/Mol        Cal/Mol-Kelvin    Cal/Mol-Kelvin
 Total                   94.776             30.051             96.805
 Electronic               0.000              0.000              1.377
 Translational            0.889              2.981             39.439
 Rotational               0.889              2.981             27.567
 Vibrational             92.999             24.089             28.421
 Vibration     1          0.593              1.986              7.367
 Vibration     2          0.601              1.958              3.707
 Vibration     3          0.608              1.934              3.130
 Vibration     4          0.614              1.915              2.825
 Vibration     5          0.628              1.872              2.368
 Vibration     6          0.635              1.847              2.184
 Vibration     7          0.649              1.806              1.935
 Vibration     8          0.707              1.632              1.301
 Vibration     9          0.743              1.532              1.076
 Vibration    10          0.824              1.324              0.747
 Vibration    11          0.901              1.150              0.554

 Optimization completed on the basis of negligible forces.
    -- Stationary point found.
 Normal termination of Gaussian 16 at Tue Jun 25 04:33:27 2019.
