 Gaussian 16, Revision B.01,
 Gaussian 16:  ES64L-G16RevB.01 20-Dec-2017

 ----------------------------------------------------------------------
 # opt=(calcfc,ts,noeigentest,maxcyc=500,modredundant) uB2PLYPD3/cc-pvt
 z scf=maxcyc=500 nosymm
 ----------------------------------------------------------------------

 -------------------
 Title Card Required
 -------------------
 Symbolic Z-matrix:
 Charge =  0 Multiplicity = 2

 SCF Done:  E(UB2PLYPD3) =  -230.321143600     A.U. after   19 cycles
 E2(B2PLYPD3) =    -0.2777727096D+00 E(B2PLYPD3) =    -0.23059891630972D+03
 E2(B2PLYPD3) =    -0.2777727096D+00 E(B2PLYPD3) =    -0.23059891630972D+03

  Exact polarizability:  72.660  -5.023  38.262  -0.168   1.257  33.531
 Approx polarizability:  55.995  -3.188  42.053   2.401   2.114  38.528

 Optimization completed.
    -- Stationary point found.
 SCF Done:  E(UB2PLYPD3) =  -230.321129899     A.U. after   13 cycles
 E2(B2PLYPD3) =    -0.2777737346D+00 E(B2PLYPD3) =    -0.23059890363323D+03
 SCF Done:  E(UB2PLYPD3) =  -230.321130169     A.U. after   11 cycles
 E2(B2PLYPD3) =    -0.2777744415D+00 E(B2PLYPD3) =    -0.23059890461035D+03
 Optimization completed.
 SCF Done:  E(UB2PLYPD3) =  -230.321093964     A.U. after   12 cycles
 E2(B2PLYPD3) =    -0.2777776068D+00 E(B2PLYPD3) =    -0.23059887157115D+03
 SCF Done:  E(UB2PLYPD3) =  -230.321108513     A.U. after   11 cycles
 E2(B2PLYPD3) =    -0.2777655522D+00 E(B2PLYPD3) =    -0.23059887406511D+03
 SCF Done:  E(UB2PLYPD3) =  -230.321061435     A.U. after   13 cycles
 E2(B2PLYPD3) =    -0.2777722069D+00 E(B2PLYPD3) =    -0.23059883364142D+03
 SCF Done:  E(UB2PLYPD3) =  -230.321085745     A.U. after   11 cycles
 E2(B2PLYPD3) =    -0.2777522658D+00 E(B2PLYPD3) =    -0.23059883801080D+03
 SCF Done:  E(UB2PLYPD3) =  -230.321084072     A.U. after    7 cycles
 E2(B2PLYPD3) =    -0.2777539447D+00 E(B2PLYPD3) =    -0.23059883801709D+03
 SCF Done:  E(UB2PLYPD3) =  -230.321042175     A.U. after   12 cycles
 E2(B2PLYPD3) =    -0.2777624170D+00 E(B2PLYPD3) =    -0.23059880459165D+03
 SCF Done:  E(UB2PLYPD3) =  -230.321068980     A.U. after   11 cycles
 E2(B2PLYPD3) =    -0.2777409078D+00 E(B2PLYPD3) =    -0.23059880988817D+03
 E2(B2PLYPD3) =    -0.2777428645D+00 E(B2PLYPD3) =    -0.23059880989361D+03
 E2(B2PLYPD3) =    -0.2777526681D+00 E(B2PLYPD3) =    -0.23059879144903D+03
 E2(B2PLYPD3) =    -0.2777341435D+00 E(B2PLYPD3) =    -0.23059879651698D+03
 E2(B2PLYPD3) =    -0.2777441497D+00 E(B2PLYPD3) =    -0.23059879336383D+03
 E2(B2PLYPD3) =    -0.2777309887D+00 E(B2PLYPD3) =    -0.23059879752076D+03
 E2(B2PLYPD3) =    -0.2777366517D+00 E(B2PLYPD3) =    -0.23059880576545D+03
 E2(B2PLYPD3) =    -0.2777299532D+00 E(B2PLYPD3) =    -0.23059880903062D+03
 E2(B2PLYPD3) =    -0.2777306671D+00 E(B2PLYPD3) =    -0.23059882504099D+03
 E2(B2PLYPD3) =    -0.2777310923D+00 E(B2PLYPD3) =    -0.23059882779456D+03
 E2(B2PLYPD3) =    -0.2777432577D+00 E(B2PLYPD3) =    -0.23059881183504D+03
 E2(B2PLYPD3) =    -0.2777444541D+00 E(B2PLYPD3) =    -0.23059881184991D+03
 E2(B2PLYPD3) =    -0.2777539625D+00 E(B2PLYPD3) =    -0.23059879140931D+03
 E2(B2PLYPD3) =    -0.2777355043D+00 E(B2PLYPD3) =    -0.23059879689072D+03
 E2(B2PLYPD3) =    -0.2777364450D+00 E(B2PLYPD3) =    -0.23059879689739D+03
 E2(B2PLYPD3) =    -0.2777448571D+00 E(B2PLYPD3) =    -0.23059879268249D+03
 E2(B2PLYPD3) =    -0.2777320291D+00 E(B2PLYPD3) =    -0.23059879717602D+03
 E2(B2PLYPD3) =    -0.2777371454D+00 E(B2PLYPD3) =    -0.23059880520012D+03
 E2(B2PLYPD3) =    -0.2777309447D+00 E(B2PLYPD3) =    -0.23059880863716D+03
 E2(B2PLYPD3) =    -0.2777309131D+00 E(B2PLYPD3) =    -0.23059882457443D+03
 SCF Done:  E(UB2PLYPD3) =  -230.321095550     A.U. after   10 cycles
 E2(B2PLYPD3) =    -0.2777318466D+00 E(B2PLYPD3) =    -0.23059882739685D+03
 SCF Done:  E(UB2PLYPD3) =  -230.321095443     A.U. after    9 cycles
 E2(B2PLYPD3) =    -0.2777319939D+00 E(B2PLYPD3) =    -0.23059882743672D+03
 SCF Done:  E(UB2PLYPD3) =  -230.321121175     A.U. after   12 cycles
 E2(B2PLYPD3) =    -0.2777283402D+00 E(B2PLYPD3) =    -0.23059884951540D+03
 SCF Done:  E(UB2PLYPD3) =  -230.321116378     A.U. after   11 cycles
 E2(B2PLYPD3) =    -0.2777357852D+00 E(B2PLYPD3) =    -0.23059885216317D+03
 SCF Done:  E(UB2PLYPD3) =  -230.321145125     A.U. after   13 cycles
 E2(B2PLYPD3) =    -0.2777327576D+00 E(B2PLYPD3) =    -0.23059887788289D+03
 SCF Done:  E(UB2PLYPD3) =  -230.321134233     A.U. after   11 cycles
 E2(B2PLYPD3) =    -0.2777462538D+00 E(B2PLYPD3) =    -0.23059888048688D+03
 SCF Done:  E(UB2PLYPD3) =  -230.321158989     A.U. after   13 cycles
 E2(B2PLYPD3) =    -0.2777444957D+00 E(B2PLYPD3) =    -0.23059890348450D+03
 SCF Done:  E(UB2PLYPD3) =  -230.321145058     A.U. after   11 cycles
 E2(B2PLYPD3) =    -0.2777604584D+00 E(B2PLYPD3) =    -0.23059890551602D+03
    -- Stationary point found.
 SCF Done:  E(UB2PLYPD3) =  -230.321154311     A.U. after   13 cycles
 E2(B2PLYPD3) =    -0.2777606226D+00 E(B2PLYPD3) =    -0.23059891493403D+03
 SCF Done:  E(UB2PLYPD3) =  -230.321143930     A.U. after    9 cycles
 E2(B2PLYPD3) =    -0.2777720089D+00 E(B2PLYPD3) =    -0.23059891593867D+03
 Optimization completed.
    -- Stationary point found.

                          Input orientation:
 ---------------------------------------------------------------------
 Center     Atomic      Atomic             Coordinates (Angstroms)
 Number     Number       Type             X           Y           Z
 ---------------------------------------------------------------------
      1          6           0        1.531987   -0.032129    0.203661
      2          1           0        0.907268    0.161717    1.077377
      3          1           0        2.109927   -0.941097    0.356964
      4          1           0        2.196369    0.812457    0.029814
      5          8           0        0.733496   -0.287709   -0.942365
      6          8           0        0.032883    0.896007   -1.249234
      7          6           0       -2.143590    0.620134    0.009433
      8          1           0       -2.880286    0.978536   -0.697182
      9          1           0       -2.128242   -0.451768    0.159648
     10          1           0       -0.949974    0.792398   -0.688999
     11          1           0       -2.029912    1.219108    0.902832
 ---------------------------------------------------------------------

 Alpha  occ. eigenvalues --  -19.78659 -19.78638 -10.66119 -10.64076  -1.27548
 Alpha  occ. eigenvalues --   -1.02395  -0.83017  -0.77568  -0.61114  -0.55882
 Alpha  occ. eigenvalues --   -0.54582  -0.50331  -0.49975  -0.49801  -0.44179
 Alpha  occ. eigenvalues --   -0.37846  -0.36837  -0.31392
 Alpha virt. eigenvalues --    0.07342   0.10550   0.12803   0.14258   0.15164
 Alpha virt. eigenvalues --    0.15561   0.16750   0.20200   0.26921   0.28086
 Alpha virt. eigenvalues --    0.28503   0.31347   0.32714   0.36260   0.44605

  Beta  occ. eigenvalues --  -19.78529 -19.77131 -10.66126 -10.62742  -1.25765
  Beta  occ. eigenvalues --   -0.99672  -0.79108  -0.76749  -0.57803  -0.54675
  Beta  occ. eigenvalues --   -0.54278  -0.49310  -0.49112  -0.46631  -0.43343
  Beta  occ. eigenvalues --   -0.35717  -0.33951
  Beta virt. eigenvalues --   -0.05327   0.07663   0.10811   0.13464   0.14477
  Beta virt. eigenvalues --    0.15413   0.15705   0.16879   0.21008   0.28296
  Beta virt. eigenvalues --    0.28360   0.29554   0.31744   0.32841   0.37336

 Mulliken charges and spin densities:
               1          2
     1  C   -0.043560  -0.002851
     2  H    0.063707   0.000375
     3  H    0.094166  -0.000799
     4  H    0.084335   0.002246
     5  O   -0.189248   0.023442
     6  O   -0.223394   0.386797
     7  C   -0.377637   0.720751
     8  H    0.128082  -0.015274
     9  H    0.125993  -0.015528
    10  H    0.220439  -0.083920
    11  H    0.117118  -0.015238
 Sum of Mulliken charges =  -0.00000   1.00000

 Dipole moment (field-independent basis, Debye):
    X=             -0.6704    Y=             -0.0360    Z=              2.3141  Tot=              2.4095
 Quadrupole moment (field-independent basis, Debye-Ang):
   XX=            -21.0316   YY=            -26.5941   ZZ=            -29.1375
   XY=             -1.2587   XZ=              1.7486   YZ=              0.5467

 Normal termination of Gaussian 16 at Wed Jun 12 13:45:21 2019.
