 Gaussian 16, Revision B.01,
 Gaussian 16:  ES64L-G16RevB.01 20-Dec-2017

 ----------------------------------------------------------------------
 # opt=(calcfc,ts,noeigentest,maxcyc=500) freq=noraman uB2PLYPD3/cc-pvt
 z
 ----------------------------------------------------------------------

 -------------------
 Title Card Required
 -------------------
 Symbolic Z-matrix:
 Charge =  0 Multiplicity = 2

 SCF Done:  E(UB2PLYPD3) =  -307.564491829     A.U. after   22 cycles
 E2(B2PLYPD3) =    -0.3816467142D+00 E(B2PLYPD3) =    -0.30794613854283D+03
 E2(B2PLYPD3) =    -0.3816467142D+00 E(B2PLYPD3) =    -0.30794613854283D+03
 SCF Done:  E(UB2PLYPD3) =  -307.564606965     A.U. after   16 cycles
 E2(B2PLYPD3) =    -0.3820483290D+00 E(B2PLYPD3) =    -0.30794665529368D+03
 SCF Done:  E(UB2PLYPD3) =  -307.564583160     A.U. after   12 cycles
 E2(B2PLYPD3) =    -0.3820778266D+00 E(B2PLYPD3) =    -0.30794666098657D+03
 SCF Done:  E(UB2PLYPD3) =  -307.564584683     A.U. after    9 cycles
 E2(B2PLYPD3) =    -0.3820763983D+00 E(B2PLYPD3) =    -0.30794666108158D+03
 Optimization completed.
    -- Stationary point found.
 Normal termination of Gaussian 16 at Fri Jun  7 10:28:05 2019.

 ----------------------------------------------------------------------
 #N Geom=AllCheck Guess=TCheck SCRF=Check GenChk UB2PLYPD3(FC)/CC-pVTZ
 Freq
 ----------------------------------------------------------------------

 Structure from the checkpoint file:  "/localscratch/341085/Gau-61269.chk"
 -------------------
 Title Card Required
 -------------------
 Charge =  0 Multiplicity = 2

                         Standard orientation:
 ---------------------------------------------------------------------
 Center     Atomic      Atomic             Coordinates (Angstroms)
 Number     Number       Type             X           Y           Z
 ---------------------------------------------------------------------
      1          6           0       -0.990250    0.961169    0.414264
      2          6           0       -1.500863   -0.092560   -0.175663
      3          1           0       -1.399115    1.715094    1.071054
      4          1           0       -0.849013   -0.695468   -0.802773
      5          6           0        2.093563   -0.978645    0.482836
      6          1           0        1.305745   -1.036098    1.235365
      7          1           0        2.299325   -1.969169    0.081642
      8          1           0        2.995992   -0.555208    0.920200
      9          8           0        1.669112   -0.207001   -0.631691
     10          8           0        1.471460    1.120023   -0.175924
     11          1           0        0.409259    1.134407    0.104108
     12          6           0       -2.934415   -0.540731   -0.060208
     13          1           0       -3.508871    0.119356    0.584992
     14          1           0       -3.402738   -0.560121   -1.044501
     15          1           0       -2.983369   -1.552371    0.343461
 ---------------------------------------------------------------------

 SCF Done:  E(UB2PLYPD3) =  -307.564584683     A.U. after    1 cycles
 E2(B2PLYPD3) =    -0.3820763911D+00 E(B2PLYPD3) =    -0.30794666107438D+03
 E2(B2PLYPD3) =    -0.3820763911D+00 E(B2PLYPD3) =    -0.30794666107438D+03

 The electronic state is 2-A.
 Alpha  occ. eigenvalues --  -19.78395 -19.77992 -10.65773 -10.64470 -10.63587
 Alpha  occ. eigenvalues --  -10.62617  -1.26980  -1.02353  -0.92621  -0.81184
 Alpha  occ. eigenvalues --   -0.77426  -0.65951  -0.61834  -0.55401  -0.54147
 Alpha  occ. eigenvalues --   -0.53262  -0.51540  -0.49398  -0.48435  -0.44757
 Alpha  occ. eigenvalues --   -0.43686  -0.37253  -0.36783  -0.32981  -0.30656
 Alpha virt. eigenvalues --    0.05930   0.07841   0.09822   0.10848   0.12726
 Alpha virt. eigenvalues --    0.14082   0.14879   0.15258   0.16910   0.17242
 Alpha virt. eigenvalues --    0.19582   0.22484   0.26963   0.29135   0.29803

  Beta  occ. eigenvalues --  -19.78289 -19.76705 -10.65778 -10.63845 -10.62839
  Beta  occ. eigenvalues --  -10.62438  -1.25451  -1.00028  -0.91424  -0.79151
  Beta  occ. eigenvalues --   -0.77082  -0.64183  -0.58554  -0.54519  -0.53883
  Beta  occ. eigenvalues --   -0.52331  -0.49723  -0.49516  -0.46062  -0.43894
  Beta  occ. eigenvalues --   -0.43095  -0.35793  -0.33935  -0.31929
  Beta virt. eigenvalues --   -0.05162   0.06685   0.07963   0.10012   0.11233
  Beta virt. eigenvalues --    0.13367   0.14157   0.15000   0.15390   0.16985
  Beta virt. eigenvalues --    0.17353   0.20151   0.22708   0.27575   0.29466

 Mulliken charges and spin densities:
               1          2
     1  C   -0.271474   0.790964
     2  C   -0.106809  -0.162160
     3  H    0.156009   0.025284
     4  H    0.169582   0.025779
     5  C   -0.066001  -0.002224
     6  H    0.073557  -0.000321
     7  H    0.093897  -0.000581
     8  H    0.098442   0.001537
     9  O   -0.194953   0.018397
    10  O   -0.230304   0.323168
    11  H    0.228470  -0.072092
    12  C   -0.261367   0.060509
    13  H    0.100053  -0.002573
    14  H    0.107818  -0.002927
    15  H    0.103080  -0.002761
 Sum of Mulliken charges =  -0.00000   1.00000

 Dipole moment (field-independent basis, Debye):
    X=             -2.1252    Y=             -1.6056    Z=              1.5355  Tot=              3.0745
 Quadrupole moment (field-independent basis, Debye-Ang):
   XX=            -35.2559   YY=            -36.6268   ZZ=            -39.0180
   XY=             -3.6095   XZ=              2.2382   YZ=              1.6580

  Exact polarizability:  97.281   0.063  63.431  -0.940   5.760  48.849
 Approx polarizability:  77.693   3.227  75.745  -1.439   9.305  59.366

 ******    1 imaginary frequencies (negative Signs) ******

                      1                      2                      3
                      A                      A                      A
 Frequencies --  -1403.3508                63.9968                79.3103
 Red. masses --      1.1937                 2.9356                 2.0785
 Frc consts  --      1.3851                 0.0071                 0.0077
 IR Inten    --   1364.3200                 0.7617                 1.1517

                      4                      5                      6
                      A                      A                      A
 Frequencies --    102.2002               136.6049               200.5817
 Red. masses --      2.7991                 2.6786                 1.2861
 Frc consts  --      0.0172                 0.0294                 0.0305
 IR Inten    --      4.8445                 1.0566                 1.2635

                      7                      8                      9
                      A                      A                      A
 Frequencies --    207.4287               276.3772               411.3686
 Red. masses --      1.3090                 2.5479                 3.3845
 Frc consts  --      0.0332                 0.1147                 0.3375
 IR Inten    --      0.5970                 1.5920                 2.5950

                     10                     11                     12
                      A                      A                      A
 Frequencies --    464.6393               608.1661               647.5603
 Red. masses --      3.5445                 1.4473                 1.7780
 Frc consts  --      0.4509                 0.3154                 0.4393
 IR Inten    --      4.9832                14.3046                34.4374

                     13                     14                     15
                      A                      A                      A
 Frequencies --    815.6882               891.3326               910.7811
 Red. masses --      1.1813                 1.0829                 4.2335
 Frc consts  --      0.4631                 0.5069                 2.0691
 IR Inten    --     13.5134                67.4977                11.6370

                     16                     17                     18
                      A                      A                      A
 Frequencies --    932.2188              1014.3003              1061.3250
 Red. masses --      1.6169                 2.2711                 5.7555
 Frc consts  --      0.8279                 1.3766                 3.8197
 IR Inten    --      9.9595                14.6626                15.8368

                     19                     20                     21
                      A                      A                      A
 Frequencies --   1071.2924              1178.0320              1180.5273
 Red. masses --      1.4846                 1.5284                 1.4322
 Frc consts  --      1.0038                 1.2497                 1.1760
 IR Inten    --      4.0551                 2.2720                 1.9993

                     22                     23                     24
                      A                      A                      A
 Frequencies --   1219.8732              1300.8825              1408.9295
 Red. masses --      1.5866                 1.1885                 1.2206
 Frc consts  --      1.3911                 1.1851                 1.4275
 IR Inten    --      5.1854                 0.3031                 0.7243

                     25                     26                     27
                      A                      A                      A
 Frequencies --   1457.9557              1480.3001              1487.3255
 Red. masses --      1.1463                 1.0531                 1.0735
 Frc consts  --      1.4356                 1.3597                 1.3991
 IR Inten    --      2.9653                 7.5669                 3.8997

                     28                     29                     30
                      A                      A                      A
 Frequencies --   1495.0882              1499.4621              1520.0422
 Red. masses --      1.0450                 1.0540                 1.0513
 Frc consts  --      1.3763                 1.3963                 1.4312
 IR Inten    --      6.7015                18.2962                 9.0301

                     31                     32                     33
                      A                      A                      A
 Frequencies --   1705.5678              3037.3944              3049.0665
 Red. masses --      5.6766                 1.0300                 1.0349
 Frc consts  --      9.7292                 5.5986                 5.6687
 IR Inten    --      1.7949                34.4763                25.3847

                     34                     35                     36
                      A                      A                      A
 Frequencies --   3108.6570              3115.4679              3124.2986
 Red. masses --      1.1005                 1.1044                 1.0875
 Frc consts  --      6.2658                 6.3156                 6.2546
 IR Inten    --     12.7423                39.7857                 3.8036

                     37                     38                     39
                      A                      A                      A
 Frequencies --   3143.3133              3144.5539              3216.3443
 Red. masses --      1.1050                 1.1000                 1.0989
 Frc consts  --      6.4325                 6.4084                 6.6981
 IR Inten    --     16.2909                11.0464                 0.1522

 - Thermochemistry -
 -------------------
 Temperature   298.150 Kelvin.  Pressure   1.00000 Atm.
 Atom     1 has atomic number  6 and mass  12.00000

 Molecular mass:    89.06025 amu.
 Principal axes and moments of inertia in atomic units:
                           1         2         3
     Eigenvalues --   276.405171226.700721376.00108
           X            0.99987  -0.00978   0.01314
           Y            0.00961   0.99987   0.01317
           Z           -0.01327  -0.01304   0.99983
 This molecule is an asymmetric top.
 Rotational symmetry number  1.
 Rotational temperatures (Kelvin)      0.31336     0.07061     0.06295
 Rotational constants (GHZ):           6.52933     1.47122     1.31158
    1 imaginary frequencies ignored.
 Zero-point vibrational energy     309642.9 (Joules/Mol)
                                   74.00644 (Kcal/Mol)
 Warning -- explicit consideration of  10 degrees of freedom as
           vibrations may cause significant error
 Vibrational temperatures:     92.08   114.11   147.04   196.54   288.59
          (Kelvin)            298.44   397.65   591.87   668.51   875.02
                              931.69  1173.59  1282.43  1310.41  1341.25
                             1459.35  1527.01  1541.35  1694.93  1698.52
                             1755.13  1871.68  2027.14  2097.67  2129.82
                             2139.93  2151.10  2157.39  2187.00  2453.93
                             4370.13  4386.93  4472.66  4482.46  4495.17
                             4522.53  4524.31  4627.60

 Zero-point correction=                           0.117937 (Hartree/Particle)
 Thermal correction to Energy=                    0.126573
 Thermal correction to Enthalpy=                  0.127517
 Thermal correction to Gibbs Free Energy=         0.083709
 Sum of electronic and zero-point Energies=           -307.828724
 Sum of electronic and thermal Energies=              -307.820088
 Sum of electronic and thermal Enthalpies=            -307.819144
 Sum of electronic and thermal Free Energies=         -307.862952

                     E (Thermal)             CV                S
                      KCal/Mol        Cal/Mol-Kelvin    Cal/Mol-Kelvin
 Total                   79.425             28.313             92.201
 Electronic               0.000              0.000              1.377
 Translational            0.889              2.981             39.373
 Rotational               0.889              2.981             27.636
 Vibrational             77.648             22.351             23.815
 Vibration     1          0.597              1.971              4.330
 Vibration     2          0.600              1.963              3.908
 Vibration     3          0.604              1.947              3.412
 Vibration     4          0.614              1.917              2.851
 Vibration     5          0.638              1.839              2.128
 Vibration     6          0.641              1.829              2.066
 Vibration     7          0.678              1.717              1.556
 Vibration     8          0.775              1.446              0.922
 Vibration     9          0.822              1.328              0.753
 Vibration    10          0.967              1.015              0.436

 Optimization completed.
    -- Stationary point found.
 Normal termination of Gaussian 16 at Fri Jun  7 11:24:49 2019.
