 Gaussian 16, Revision B.01,
 Gaussian 16:  ES64L-G16RevB.01 20-Dec-2017

 ----------------------------------------------------------------------
 # opt=(calcfc,ts,noeigentest,maxcyc=500) freq=noraman uB2PLYPD3/cc-pvt
 z
 ----------------------------------------------------------------------

 -------------------
 Title Card Required
 -------------------
 Symbolic Z-matrix:
 Charge =  0 Multiplicity = 2

 SCF Done:  E(UB2PLYPD3) =  -269.557885621     A.U. after   19 cycles
 E2(B2PLYPD3) =    -0.3354012637D+00 E(B2PLYPD3) =    -0.26989328688510D+03
 E2(B2PLYPD3) =    -0.3354012637D+00 E(B2PLYPD3) =    -0.26989328688510D+03
 SCF Done:  E(UB2PLYPD3) =  -269.557871075     A.U. after   14 cycles
 E2(B2PLYPD3) =    -0.3354322279D+00 E(B2PLYPD3) =    -0.26989330330334D+03
 SCF Done:  E(UB2PLYPD3) =  -269.557872187     A.U. after   12 cycles
 E2(B2PLYPD3) =    -0.3354325702D+00 E(B2PLYPD3) =    -0.26989330475765D+03
 SCF Done:  E(UB2PLYPD3) =  -269.557869562     A.U. after   12 cycles
 E2(B2PLYPD3) =    -0.3354355032D+00 E(B2PLYPD3) =    -0.26989330506509D+03
 Optimization completed on the basis of negligible forces.
    -- Stationary point found.
 Normal termination of Gaussian 16 at Mon Jun 24 15:26:47 2019.

 ----------------------------------------------------------------------
 #N Geom=AllCheck Guess=TCheck SCRF=Check GenChk UB2PLYPD3(FC)/CC-pVTZ
 Freq
 ----------------------------------------------------------------------

 Structure from the checkpoint file:  "/localscratch/353444/Gau-95092.chk"
 -------------------
 Title Card Required
 -------------------
 Charge =  0 Multiplicity = 2

                         Standard orientation:
 ---------------------------------------------------------------------
 Center     Atomic      Atomic             Coordinates (Angstroms)
 Number     Number       Type             X           Y           Z
 ---------------------------------------------------------------------
      1          6           0       -1.984704   -0.723262   -0.307074
      2          1           0       -2.947615   -1.159784   -0.024124
      3          1           0       -2.049055   -0.428689   -1.352485
      4          1           0       -1.233390   -1.507026   -0.225361
      5          6           0       -1.654638    0.447056    0.570223
      6          1           0       -2.238319    1.348563    0.412353
      7          1           0       -1.491259    0.230432    1.621193
      8          6           0        1.914363   -0.594191    0.485439
      9          1           0        1.248565   -0.807848    1.323555
     10          1           0        2.390169   -1.512437    0.147170
     11          1           0        2.666918    0.131562    0.788536
     12          8           0        1.181572   -0.117797   -0.633921
     13          8           0        0.622229    1.126690   -0.282088
     14          1           0       -0.426543    0.856462    0.145704
 ---------------------------------------------------------------------

 SCF Done:  E(UB2PLYPD3) =  -269.557869562     A.U. after    1 cycles
 E2(B2PLYPD3) =    -0.3354354990D+00 E(B2PLYPD3) =    -0.26989330506091D+03
 E2(B2PLYPD3) =    -0.3354354990D+00 E(B2PLYPD3) =    -0.26989330506091D+03

 The electronic state is 2-A.
 Alpha  occ. eigenvalues --  -19.78528 -19.78265 -10.66032 -10.63891 -10.61390
 Alpha  occ. eigenvalues --   -1.27240  -1.01944  -0.89077  -0.77741  -0.72829
 Alpha  occ. eigenvalues --   -0.60878  -0.55800  -0.54448  -0.53178  -0.50938
 Alpha  occ. eigenvalues --   -0.47853  -0.46007  -0.43963  -0.42838  -0.37062
 Alpha  occ. eigenvalues --   -0.36495  -0.29822
 Alpha virt. eigenvalues --    0.07296   0.10168   0.10843   0.12826   0.14137
 Alpha virt. eigenvalues --    0.15072   0.15418   0.17529   0.17875   0.21002
 Alpha virt. eigenvalues --    0.24683   0.27899   0.29263   0.30470   0.31647

  Beta  occ. eigenvalues --  -19.78381 -19.76656 -10.66041 -10.62628 -10.61447
  Beta  occ. eigenvalues --   -1.25382  -0.99043  -0.87033  -0.77317  -0.70475
  Beta  occ. eigenvalues --   -0.57504  -0.54714  -0.54097  -0.52525  -0.48940
  Beta  occ. eigenvalues --   -0.45572  -0.44532  -0.43027  -0.42474  -0.35280
  Beta  occ. eigenvalues --   -0.33503
  Beta virt. eigenvalues --   -0.04278   0.07444   0.10277   0.11254   0.13156
  Beta virt. eigenvalues --    0.14626   0.15211   0.15464   0.17739   0.18029
  Beta virt. eigenvalues --    0.21652   0.25058   0.28601   0.29988   0.30661

 Mulliken charges and spin densities:
               1          2
     1  C   -0.272060  -0.032067
     2  H    0.104674   0.040541
     3  H    0.112054   0.004072
     4  H    0.107589   0.006922
     5  C   -0.288319   0.643030
     6  H    0.123732  -0.011193
     7  H    0.114889  -0.012021
     8  C   -0.058390  -0.003626
     9  H    0.066869   0.000752
    10  H    0.095382  -0.000876
    11  H    0.095056   0.002102
    12  O   -0.190408   0.025979
    13  O   -0.226668   0.412066
    14  H    0.215602  -0.075680
 Sum of Mulliken charges =  -0.00000   1.00000

 Dipole moment (field-independent basis, Debye):
    X=             -0.9891    Y=             -1.3670    Z=              1.7684  Tot=              2.4442
 Quadrupole moment (field-independent basis, Debye-Ang):
   XX=            -28.4762   YY=            -33.3290   ZZ=            -33.3476
   XY=             -2.6585   XZ=              1.8002   YZ=              0.1282

  Exact polarizability:  83.419  -1.237  50.273  -4.469   0.613  45.433
 Approx polarizability:  68.658  -1.093  57.190  -5.612   0.151  51.648

 ******    1 imaginary frequencies (negative Signs) ******

                      1                      2                      3
                      A                      A                      A
 Frequencies --  -1897.9011                19.2472                86.0336
 Red. masses --      1.1062                 2.2332                 2.3023
 Frc consts  --      2.3476                 0.0005                 0.0100
 IR Inten    --   1699.2794                 1.9053                 1.7209

                      4                      5                      6
                      A                      A                      A
 Frequencies --    117.5008               147.5338               204.3852
 Red. masses --      2.5541                 1.2189                 1.2795
 Frc consts  --      0.0208                 0.0156                 0.0315
 IR Inten    --      2.6464                 0.3875                 2.2373

                      7                      8                      9
                      A                      A                      A
 Frequencies --    300.8950               450.6856               514.8881
 Red. masses --      2.6315                 2.2812                 1.5276
 Frc consts  --      0.1404                 0.2730                 0.2386
 IR Inten    --      1.3988                 3.8612                 1.8441

                     10                     11                     12
                      A                      A                      A
 Frequencies --    552.6533               829.9316               877.2070
 Red. masses --      3.1268                 1.0500                 1.2534
 Frc consts  --      0.5627                 0.4261                 0.5683
 IR Inten    --      0.3595                 3.8369                25.6000

                     13                     14                     15
                      A                      A                      A
 Frequencies --    919.9584              1047.8909              1054.2151
 Red. masses --      3.6046                 2.4881                 7.1339
 Frc consts  --      1.7974                 1.6097                 4.6713
 IR Inten    --      8.1778                 2.4954                40.3066

                     16                     17                     18
                      A                      A                      A
 Frequencies --   1097.3107              1177.4966              1192.4538
 Red. masses --      1.2274                 1.2720                 1.4967
 Frc consts  --      0.8708                 1.0391                 1.2539
 IR Inten    --     13.6676                 2.3719                 3.6316

                     19                     20                     21
                      A                      A                      A
 Frequencies --   1217.8846              1235.4987              1412.1621
 Red. masses --      1.5706                 1.3956                 1.1972
 Frc consts  --      1.3726                 1.2551                 1.4067
 IR Inten    --      3.5816                 1.6211                 5.6287

                     22                     23                     24
                      A                      A                      A
 Frequencies --   1455.8104              1459.7583              1479.8897
 Red. masses --      1.0880                 1.0999                 1.0959
 Frc consts  --      1.3586                 1.3809                 1.4140
 IR Inten    --      6.1522                 7.5779                 1.1321

                     25                     26                     27
                      A                      A                      A
 Frequencies --   1484.2637              1490.5638              1501.2319
 Red. masses --      1.0984                 1.0397                 1.0575
 Frc consts  --      1.4257                 1.3610                 1.4042
 IR Inten    --      8.0960                 7.2453                 5.3121

                     28                     29                     30
                      A                      A                      A
 Frequencies --   1518.3333              3022.1583              3034.2790
 Red. masses --      1.0521                 1.0485                 1.0317
 Frc consts  --      1.4290                 5.6424                 5.5963
 IR Inten    --      8.7917                15.6170                36.4512

                     31                     32                     33
                      A                      A                      A
 Frequencies --   3095.5657              3106.2133              3111.7626
 Red. masses --      1.0776                 1.0590                 1.1021
 Frc consts  --      6.0842                 6.0202                 6.2873
 IR Inten    --      1.5628                20.7831                42.5041

                     34                     35                     36
                      A                      A                      A
 Frequencies --   3132.1122              3145.1728              3187.4804
 Red. masses --      1.1020                 1.1050                 1.1118
 Frc consts  --      6.3697                 6.4404                 6.6553
 IR Inten    --      9.6324                15.5142                17.7467

 - Thermochemistry -
 -------------------
 Temperature   298.150 Kelvin.  Pressure   1.00000 Atm.
 Atom     1 has atomic number  6 and mass  12.00000

 Molecular mass:    77.06025 amu.
 Principal axes and moments of inertia in atomic units:
                           1         2         3
     Eigenvalues --   233.12624 755.32015 827.68875
           X            0.99969  -0.01230   0.02154
           Y            0.01159   0.99939   0.03290
           Z           -0.02194  -0.03264   0.99923
 This molecule is an asymmetric top.
 Rotational symmetry number  1.
 Rotational temperatures (Kelvin)      0.37153     0.11467     0.10465
 Rotational constants (GHZ):           7.74148     2.38937     2.18046
    1 imaginary frequencies ignored.
 Zero-point vibrational energy     297154.9 (Joules/Mol)
                                   71.02174 (Kcal/Mol)
 Warning -- explicit consideration of   9 degrees of freedom as
           vibrations may cause significant error
 Vibrational temperatures:     27.69   123.78   169.06   212.27   294.06
          (Kelvin)            432.92   648.44   740.81   795.14  1194.09
                             1262.11  1323.62  1507.68  1516.78  1578.79
                             1694.16  1715.68  1752.26  1777.61  2031.79
                             2094.59  2100.27  2129.23  2135.52  2144.59
                             2159.94  2184.54  4348.21  4365.65  4453.83
                             4469.15  4477.13  4506.41  4525.20  4586.07

 Zero-point correction=                           0.113180 (Hartree/Particle)
 Thermal correction to Energy=                    0.121037
 Thermal correction to Enthalpy=                  0.121981
 Thermal correction to Gibbs Free Energy=         0.079452
 Sum of electronic and zero-point Energies=           -269.780125
 Sum of electronic and thermal Energies=              -269.772268
 Sum of electronic and thermal Enthalpies=            -269.771324
 Sum of electronic and thermal Free Energies=         -269.813854

                     E (Thermal)             CV                S
                      KCal/Mol        Cal/Mol-Kelvin    Cal/Mol-Kelvin
 Total                   75.952             24.966             89.511
 Electronic               0.000              0.000              1.377
 Translational            0.889              2.981             38.941
 Rotational               0.889              2.981             26.480
 Vibrational             74.174             19.004             22.712
 Vibration     1          0.593              1.986              6.710
 Vibration     2          0.601              1.959              3.748
 Vibration     3          0.608              1.935              3.141
 Vibration     4          0.617              1.905              2.704
 Vibration     5          0.640              1.834              2.093
 Vibration     6          0.693              1.672              1.412
 Vibration     7          0.809              1.359              0.794
 Vibration     8          0.870              1.217              0.622
 Vibration     9          0.908              1.134              0.539

 Optimization completed on the basis of negligible forces.
    -- Stationary point found.

 1\1\GINC-N144\Freq\UB2PLYPD3-FC\CC-pVTZ\C3H9O2(2)\ROOT\24-Jun-2019\0\\
 #N Geom=AllCheck Guess=TCheck SCRF=Check GenChk UB2PLYPD3(FC)/CC-pVTZ
 Freq\\Title Card Required\\0,2\C,-2.0347227205,-0.0809416167,0.7765320
 671\H,-3.0359673127,0.3432574003,0.6525404491\H,-2.0756338493,-0.79127
 54735,1.5996659758\H,-1.3691747417,0.7303858618,1.0667578306\C,-1.5771
 681736,-0.7396467997,-0.4903498565\H,-2.0642301856,-1.673807609,-0.751
 9514181\H,-1.4295595684,-0.0882606037,-1.3459564976\C,1.8621894671,0.4
 939503695,0.2011751724\H,1.1839380517,0.9770283023,-0.5045064432\H,2.2

 Normal termination of Gaussian 16 at Mon Jun 24 16:02:12 2019.
