 Gaussian 16, Revision B.01,
 Gaussian 16:  ES64L-G16RevB.01 20-Dec-2017

 ----------------------------------------------------------------------
 # opt=(calcfc,ts,noeigentest,maxcyc=500) freq=noraman uB2PLYPD3/cc-pvt
 z
 ----------------------------------------------------------------------

 -------------------
 Title Card Required
 -------------------
 Symbolic Z-matrix:
 Charge =  0 Multiplicity = 2

 SCF Done:  E(UB2PLYPD3) =  -230.321324081     A.U. after   19 cycles
 E2(B2PLYPD3) =    -0.2770820535D+00 E(B2PLYPD3) =    -0.23059840613444D+03
 E2(B2PLYPD3) =    -0.2770820535D+00 E(B2PLYPD3) =    -0.23059840613444D+03
 SCF Done:  E(UB2PLYPD3) =  -230.321191023     A.U. after   15 cycles
 E2(B2PLYPD3) =    -0.2777192939D+00 E(B2PLYPD3) =    -0.23059891031713D+03
 SCF Done:  E(UB2PLYPD3) =  -230.321141901     A.U. after   11 cycles
 E2(B2PLYPD3) =    -0.2777736638D+00 E(B2PLYPD3) =    -0.23059891556485D+03
 SCF Done:  E(UB2PLYPD3) =  -230.321139203     A.U. after   11 cycles
 E2(B2PLYPD3) =    -0.2777769423D+00 E(B2PLYPD3) =    -0.23059891614552D+03
 SCF Done:  E(UB2PLYPD3) =  -230.321143188     A.U. after   11 cycles
 E2(B2PLYPD3) =    -0.2777731242D+00 E(B2PLYPD3) =    -0.23059891631236D+03
 SCF Done:  E(UB2PLYPD3) =  -230.321143606     A.U. after    9 cycles
 E2(B2PLYPD3) =    -0.2777727108D+00 E(B2PLYPD3) =    -0.23059891631681D+03
 Optimization completed.
    -- Stationary point found.
 Normal termination of Gaussian 16 at Wed Jun  5 14:30:19 2019.

 ----------------------------------------------------------------------
 #N Geom=AllCheck Guess=TCheck SCRF=Check GenChk UB2PLYPD3(FC)/CC-pVTZ
 Freq
 ----------------------------------------------------------------------

 Structure from the checkpoint file:  "/localscratch/341085/Gau-60926.chk"
 -------------------
 Title Card Required
 -------------------
 Charge =  0 Multiplicity = 2

                         Standard orientation:
 ---------------------------------------------------------------------
 Center     Atomic      Atomic             Coordinates (Angstroms)
 Number     Number       Type             X           Y           Z
 ---------------------------------------------------------------------
      1          6           0        1.564286    0.646589   -0.180944
      2          1           0        0.892655    1.457066   -0.469512
      3          1           0        2.321353    1.020599    0.505135
      4          1           0        2.034230    0.223093   -1.066806
      5          8           0        0.866245   -0.354470    0.544938
      6          8           0       -0.066410   -0.946560   -0.330133
      7          6           0       -2.160040    0.421321    0.047827
      8          1           0       -2.940665   -0.327592    0.064056
      9          1           0       -1.916512    0.858126    1.007852
     10          1           0       -1.016265   -0.342462   -0.176793
     11          1           0       -2.198951    1.111944   -0.783670
 ---------------------------------------------------------------------

 SCF Done:  E(UB2PLYPD3) =  -230.321143606     A.U. after    1 cycles
 E2(B2PLYPD3) =    -0.2777727140D+00 E(B2PLYPD3) =    -0.23059891632007D+03
 E2(B2PLYPD3) =    -0.2777727140D+00 E(B2PLYPD3) =    -0.23059891632007D+03

 The electronic state is 2-A.
 Alpha  occ. eigenvalues --  -19.78660 -19.78639 -10.66119 -10.64075  -1.27549
 Alpha  occ. eigenvalues --   -1.02395  -0.83017  -0.77568  -0.61115  -0.55882
 Alpha  occ. eigenvalues --   -0.54583  -0.50331  -0.49975  -0.49800  -0.44180
 Alpha  occ. eigenvalues --   -0.37846  -0.36838  -0.31392
 Alpha virt. eigenvalues --    0.07343   0.10550   0.12804   0.14258   0.15164
 Alpha virt. eigenvalues --    0.15561   0.16751   0.20200   0.26921   0.28087
 Alpha virt. eigenvalues --    0.28502   0.31346   0.32714   0.36260   0.44606

  Beta  occ. eigenvalues --  -19.78529 -19.77132 -10.66126 -10.62742  -1.25766
  Beta  occ. eigenvalues --   -0.99672  -0.79108  -0.76750  -0.57803  -0.54675
  Beta  occ. eigenvalues --   -0.54278  -0.49309  -0.49112  -0.46630  -0.43343
  Beta  occ. eigenvalues --   -0.35717  -0.33951
  Beta virt. eigenvalues --   -0.05327   0.07663   0.10811   0.13465   0.14477
  Beta virt. eigenvalues --    0.15413   0.15705   0.16879   0.21007   0.28296
  Beta virt. eigenvalues --    0.28359   0.29554   0.31744   0.32842   0.37336

 Mulliken charges and spin densities:
               1          2
     1  C   -0.043567  -0.002854
     2  H    0.063716   0.000376
     3  H    0.094167  -0.000798
     4  H    0.084338   0.002246
     5  O   -0.189243   0.023458
     6  O   -0.223378   0.386863
     7  C   -0.377648   0.720674
     8  H    0.128074  -0.015273
     9  H    0.125995  -0.015526
    10  H    0.220435  -0.083927
    11  H    0.117111  -0.015238
 Sum of Mulliken charges =  -0.00000   1.00000

 Dipole moment (field-independent basis, Debye):
    X=             -0.6991    Y=              2.2592    Z=             -0.4596  Tot=              2.4091
 Quadrupole moment (field-independent basis, Debye-Ang):
   XX=            -20.9301   YY=            -27.1159   ZZ=            -26.7081
   XY=              1.5071   XZ=             -0.6532   YZ=             -0.0328

  Exact polarizability:  72.660  -5.023  38.262  -0.168   1.257  33.531
 Approx polarizability:  55.995  -3.188  42.053   2.401   2.114  38.528

 ******    1 imaginary frequencies (negative Signs) ******

                      1                      2                      3
                      A                      A                      A
 Frequencies --  -1879.6781                42.1663                89.3165
 Red. masses --      1.1116                 1.0643                 2.8810
 Frc consts  --      2.3141                 0.0011                 0.0135
 IR Inten    --   1854.8502                 0.3019                 2.7219

                      4                      5                      6
                      A                      A                      A
 Frequencies --    141.0336               246.4028               396.9014
 Red. masses --      1.7942                 1.4002                 1.1086
 Frc consts  --      0.0210                 0.0501                 0.1029
 IR Inten    --      0.3616                 2.5542                 1.0797

                      7                      8                      9
                      A                      A                      A
 Frequencies --    463.0161               522.4789               604.7355
 Red. masses --      2.7331                 1.8032                 2.2732
 Frc consts  --      0.3452                 0.2900                 0.4898
 IR Inten    --      8.1659                 0.4694                 0.6774

                     10                     11                     12
                      A                      A                      A
 Frequencies --    913.4679              1020.5182              1051.7466
 Red. masses --      5.2763                 1.0569                 6.3210
 Frc consts  --      2.5940                 0.6485                 4.1196
 IR Inten    --     15.7397                23.6691                40.1176

                     13                     14                     15
                      A                      A                      A
 Frequencies --   1167.8046              1177.8917              1218.1052
 Red. masses --      1.3232                 1.2715                 1.5693
 Frc consts  --      1.0632                 1.0394                 1.3719
 IR Inten    --     14.2579                 2.3439                 3.9776

                     16                     17                     18
                      A                      A                      A
 Frequencies --   1427.7174              1439.9084              1455.5157
 Red. masses --      1.1103                 1.0851                 1.0445
 Frc consts  --      1.3335                 1.3256                 1.3038
 IR Inten    --     13.2115                 3.8713                 0.7585

                     19                     20                     21
                      A                      A                      A
 Frequencies --   1459.5064              1481.8464              1518.5361
 Red. masses --      1.1435                 1.0500                 1.0516
 Frc consts  --      1.4352                 1.3585                 1.4287
 IR Inten    --      5.3855                 7.4958                11.6234

                     22                     23                     24
                      A                      A                      A
 Frequencies --   3035.0999              3092.2214              3112.6564
 Red. masses --      1.0316                 1.0163                 1.1026
 Frc consts  --      5.5992                 5.7253                 6.2940
 IR Inten    --     35.7272                 1.2239                40.7906

                     25                     26                     27
                      A                      A                      A
 Frequencies --   3146.4936              3240.3358              3243.7678
 Red. masses --      1.1048                 1.1119                 1.1119
 Frc consts  --      6.4447                 6.8787                 6.8934
 IR Inten    --     15.6768                 3.3767                 4.6937

 - Thermochemistry -
 -------------------
 Temperature   298.150 Kelvin.  Pressure   1.00000 Atm.
 Atom     1 has atomic number  6 and mass  12.00000

 Molecular mass:    63.04460 amu.
 Principal axes and moments of inertia in atomic units:
                           1         2         3
     Eigenvalues --   138.78108 486.53997 552.66615
           X            0.99984   0.01150  -0.01385
           Y           -0.01183   0.99964  -0.02393
           Z            0.01357   0.02409   0.99962
 This molecule is an asymmetric top.
 Rotational symmetry number  1.
 Rotational temperatures (Kelvin)      0.62410     0.17802     0.15672
 Rotational constants (GHZ):          13.00423     3.70934     3.26552
    1 imaginary frequencies ignored.
 Zero-point vibrational energy     219569.7 (Joules/Mol)
                                   52.47842 (Kcal/Mol)
 Warning -- explicit consideration of   8 degrees of freedom as
           vibrations may cause significant error
 Vibrational temperatures:     60.67   128.51   202.92   354.52   571.05
          (Kelvin)            666.18   751.73   870.08  1314.28  1468.30
                             1513.23  1680.21  1694.72  1752.58  2054.17
                             2071.71  2094.16  2099.90  2132.05  2184.83
                             4366.83  4449.02  4478.42  4527.10  4662.12
                             4667.06

 Zero-point correction=                           0.083630 (Hartree/Particle)
 Thermal correction to Energy=                    0.090353
 Thermal correction to Enthalpy=                  0.091297
 Thermal correction to Gibbs Free Energy=         0.052570
 Sum of electronic and zero-point Energies=           -230.515287
 Sum of electronic and thermal Energies=              -230.508563
 Sum of electronic and thermal Enthalpies=            -230.507619
 Sum of electronic and thermal Free Energies=         -230.546346

                     E (Thermal)             CV                S
                      KCal/Mol        Cal/Mol-Kelvin    Cal/Mol-Kelvin
 Total                   56.697             20.925             81.508
 Electronic               0.000              0.000              1.377
 Translational            0.889              2.981             38.343
 Rotational               0.889              2.981             25.126
 Vibrational             54.920             14.963             16.661
 Vibration     1          0.595              1.980              5.155
 Vibration     2          0.602              1.957              3.675
 Vibration     3          0.615              1.912              2.790
 Vibration     4          0.661              1.769              1.756
 Vibration     5          0.763              1.477              0.974
 Vibration     6          0.821              1.332              0.757
 Vibration     7          0.877              1.200              0.604
 Vibration     8          0.963              1.022              0.442

 Optimization completed.
    -- Stationary point found.
 Normal termination of Gaussian 16 at Wed Jun  5 14:43:17 2019.
