 Gaussian 16, Revision B.01,
 Gaussian 16:  ES64L-G16RevB.01 20-Dec-2017

 ----------------------------------------------------------------------
 # opt=(calcfc,ts,noeigentest,maxcyc=500,modredundant) uB2PLYPD3/cc-pvt
 z scf=maxcyc=500 nosymm
 ----------------------------------------------------------------------

 -------------------
 Title Card Required
 -------------------
 Symbolic Z-matrix:
 Charge =  0 Multiplicity = 2

 SCF Done:  E(UB2PLYPD3) =  -308.790358966     A.U. after   19 cycles
 E2(B2PLYPD3) =    -0.3917789905D+00 E(B2PLYPD3) =    -0.30918213795630D+03
 E2(B2PLYPD3) =    -0.3917789905D+00 E(B2PLYPD3) =    -0.30918213795630D+03

  Exact polarizability: 108.129  -4.424  59.098  -4.217  -0.223  56.297
 Approx polarizability:  85.834  -1.904  65.835  -1.528  -2.541  66.030

 Optimization completed.
    -- Stationary point found.
 SCF Done:  E(UB2PLYPD3) =  -308.790363830     A.U. after   14 cycles
 E2(B2PLYPD3) =    -0.3917484643D+00 E(B2PLYPD3) =    -0.30918211229393D+03
 SCF Done:  E(UB2PLYPD3) =  -308.790381716     A.U. after   12 cycles
 E2(B2PLYPD3) =    -0.3917365821D+00 E(B2PLYPD3) =    -0.30918211829800D+03
 SCF Done:  E(UB2PLYPD3) =  -308.790379575     A.U. after    9 cycles
 E2(B2PLYPD3) =    -0.3917387461D+00 E(B2PLYPD3) =    -0.30918211832069D+03
 Optimization completed.
 SCF Done:  E(UB2PLYPD3) =  -308.790352327     A.U. after   13 cycles
 E2(B2PLYPD3) =    -0.3917192948D+00 E(B2PLYPD3) =    -0.30918207162221D+03
 SCF Done:  E(UB2PLYPD3) =  -308.790383374     A.U. after   12 cycles
 E2(B2PLYPD3) =    -0.3916960465D+00 E(B2PLYPD3) =    -0.30918207942082D+03
 SCF Done:  E(UB2PLYPD3) =  -308.790380615     A.U. after    9 cycles
 E2(B2PLYPD3) =    -0.3916988480D+00 E(B2PLYPD3) =    -0.30918207946303D+03
 SCF Done:  E(UB2PLYPD3) =  -308.790348534     A.U. after   13 cycles
 E2(B2PLYPD3) =    -0.3916841418D+00 E(B2PLYPD3) =    -0.30918203267565D+03
 SCF Done:  E(UB2PLYPD3) =  -308.790377914     A.U. after   12 cycles
 E2(B2PLYPD3) =    -0.3916625922D+00 E(B2PLYPD3) =    -0.30918204050634D+03
 SCF Done:  E(UB2PLYPD3) =  -308.790376156     A.U. after    8 cycles
 E2(B2PLYPD3) =    -0.3916643828D+00 E(B2PLYPD3) =    -0.30918204053925D+03
 E2(B2PLYPD3) =    -0.3916509488D+00 E(B2PLYPD3) =    -0.30918200243876D+03
 E2(B2PLYPD3) =    -0.3916343030D+00 E(B2PLYPD3) =    -0.30918200922655D+03
 E2(B2PLYPD3) =    -0.3916222220D+00 E(B2PLYPD3) =    -0.30918198537673D+03
 E2(B2PLYPD3) =    -0.3916112158D+00 E(B2PLYPD3) =    -0.30918199095901D+03
 E2(B2PLYPD3) =    -0.3916009161D+00 E(B2PLYPD3) =    -0.30918198737053D+03
 E2(B2PLYPD3) =    -0.3915956157D+00 E(B2PLYPD3) =    -0.30918199214550D+03
 E2(B2PLYPD3) =    -0.3915958486D+00 E(B2PLYPD3) =    -0.30918199216678D+03
 E2(B2PLYPD3) =    -0.3915905019D+00 E(B2PLYPD3) =    -0.30918201328683D+03
 E2(B2PLYPD3) =    -0.3915917320D+00 E(B2PLYPD3) =    -0.30918201776462D+03
 E2(B2PLYPD3) =    -0.3918063004D+00 E(B2PLYPD3) =    -0.30918198117091D+03
 E2(B2PLYPD3) =    -0.3918092426D+00 E(B2PLYPD3) =    -0.30918198141531D+03
 E2(B2PLYPD3) =    -0.3918105162D+00 E(B2PLYPD3) =    -0.30918198146142D+03
 E2(B2PLYPD3) =    -0.3917624659D+00 E(B2PLYPD3) =    -0.30918197296110D+03
 E2(B2PLYPD3) =    -0.3917891755D+00 E(B2PLYPD3) =    -0.30918198702653D+03
 E2(B2PLYPD3) =    -0.3917985661D+00 E(B2PLYPD3) =    -0.30918198803839D+03
 E2(B2PLYPD3) =    -0.3917460648D+00 E(B2PLYPD3) =    -0.30918201997778D+03
 E2(B2PLYPD3) =    -0.3917803919D+00 E(B2PLYPD3) =    -0.30918204166254D+03
 E2(B2PLYPD3) =    -0.3917983112D+00 E(B2PLYPD3) =    -0.30918204374509D+03
 E2(B2PLYPD3) =    -0.3917994110D+00 E(B2PLYPD3) =    -0.30918204425769D+03
 SCF Done:  E(UB2PLYPD3) =  -308.790245046     A.U. after    9 cycles
 E2(B2PLYPD3) =    -0.3917997658D+00 E(B2PLYPD3) =    -0.30918204481222D+03
 SCF Done:  E(UB2PLYPD3) =  -308.790245266     A.U. after    7 cycles
 E2(B2PLYPD3) =    -0.3917997123D+00 E(B2PLYPD3) =    -0.30918204497839D+03
 SCF Done:  E(UB2PLYPD3) =  -308.790245348     A.U. after    7 cycles
 E2(B2PLYPD3) =    -0.3917996448D+00 E(B2PLYPD3) =    -0.30918204499297D+03
 SCF Done:  E(UB2PLYPD3) =  -308.790342420     A.U. after   14 cycles
 E2(B2PLYPD3) =    -0.3917483772D+00 E(B2PLYPD3) =    -0.30918209079757D+03
 SCF Done:  E(UB2PLYPD3) =  -308.790325033     A.U. after   12 cycles
 E2(B2PLYPD3) =    -0.3917864934D+00 E(B2PLYPD3) =    -0.30918211152664D+03
 SCF Done:  E(UB2PLYPD3) =  -308.790311817     A.U. after   11 cycles
 E2(B2PLYPD3) =    -0.3918008056D+00 E(B2PLYPD3) =    -0.30918211262236D+03
 SCF Done:  E(UB2PLYPD3) =  -308.790312636     A.U. after    6 cycles
 E2(B2PLYPD3) =    -0.3917999758D+00 E(B2PLYPD3) =    -0.30918211261215D+03
    -- Stationary point found.
 SCF Done:  E(UB2PLYPD3) =  -308.790371769     A.U. after   14 cycles
 E2(B2PLYPD3) =    -0.3917576704D+00 E(B2PLYPD3) =    -0.30918212943978D+03
 SCF Done:  E(UB2PLYPD3) =  -308.790364157     A.U. after   12 cycles
 E2(B2PLYPD3) =    -0.3917735809D+00 E(B2PLYPD3) =    -0.30918213773781D+03
 SCF Done:  E(UB2PLYPD3) =  -308.790360189     A.U. after   10 cycles
 E2(B2PLYPD3) =    -0.3917778879D+00 E(B2PLYPD3) =    -0.30918213807664D+03
 Optimization completed.
    -- Stationary point found.

                          Input orientation:
 ---------------------------------------------------------------------
 Center     Atomic      Atomic             Coordinates (Angstroms)
 Number     Number       Type             X           Y           Z
 ---------------------------------------------------------------------
      1          6           0        1.636834   -0.236989   -0.597344
      2          1           0        1.058163   -1.052500   -0.161957
      3          1           0        1.556885   -0.339440   -1.680278
      4          6           0        1.061828    1.082464   -0.168856
      5          1           0        0.923006    1.222565    0.900247
      6          1           0        1.474109    1.961446   -0.656372
      7          6           0       -2.376253   -0.007893    0.771241
      8          1           0       -1.465361   -0.524832    1.078849
      9          1           0       -3.011584    0.165996    1.637329
     10          1           0       -2.905246   -0.603564    0.029173
     11          8           0       -2.078955    1.282522    0.260283
     12          8           0       -1.344276    1.113754   -0.930207
     13          1           0       -0.233472    1.123592   -0.588050
     14          6           0        3.107769   -0.381788   -0.183734
     15          1           0        3.217300   -0.312982    0.897965
     16          1           0        3.505639   -1.344205   -0.503689
     17          1           0        3.717346    0.401865   -0.631939
 ---------------------------------------------------------------------

 Alpha  occ. eigenvalues --  -19.78323 -19.78216 -10.65922 -10.63667 -10.62348
 Alpha  occ. eigenvalues --  -10.61306  -1.27097  -1.01868  -0.91790  -0.80593
 Alpha  occ. eigenvalues --   -0.77272  -0.69446  -0.60699  -0.55955  -0.54774
 Alpha  occ. eigenvalues --   -0.54240  -0.51275  -0.49297  -0.47137  -0.45996
 Alpha  occ. eigenvalues --   -0.43853  -0.42215  -0.40737  -0.36509  -0.36394
 Alpha  occ. eigenvalues --   -0.29909
 Alpha virt. eigenvalues --    0.06933   0.09335   0.11059   0.11479   0.12788
 Alpha virt. eigenvalues --    0.13475   0.15252   0.15872   0.16244   0.17899
 Alpha virt. eigenvalues --    0.18634   0.20857   0.22320   0.24740   0.27707

  Beta  occ. eigenvalues --  -19.78192 -19.76606 -10.65931 -10.62426 -10.62380
  Beta  occ. eigenvalues --  -10.61186  -1.25247  -0.98980  -0.90557  -0.78584
  Beta  occ. eigenvalues --   -0.76661  -0.68361  -0.57361  -0.55200  -0.53945
  Beta  occ. eigenvalues --   -0.53938  -0.50307  -0.46818  -0.46665  -0.43992
  Beta  occ. eigenvalues --   -0.42936  -0.41795  -0.40557  -0.35177  -0.33203
  Beta virt. eigenvalues --   -0.04438   0.07100   0.09501   0.11394   0.11732
  Beta virt. eigenvalues --    0.12853   0.14068   0.15338   0.15920   0.16427
  Beta virt. eigenvalues --    0.18055   0.18827   0.21497   0.22740   0.25066

 Mulliken charges and spin densities:
               1          2
     1  C   -0.158468  -0.037199
     2  H    0.101231   0.004629
     3  H    0.105618   0.005232
     4  C   -0.292588   0.658028
     5  H    0.120497  -0.013934
     6  H    0.123005  -0.013466
     7  C   -0.051899  -0.003766
     8  H    0.062568   0.001361
     9  H    0.097684  -0.001006
    10  H    0.083430   0.002137
    11  O   -0.188635   0.023593
    12  O   -0.224217   0.412235
    13  H    0.218583  -0.076316
    14  C   -0.294642   0.030118
    15  H    0.095218  -0.000476
    16  H    0.105320   0.009749
    17  H    0.097296  -0.000918
 Sum of Mulliken charges =  -0.00000   1.00000

 Dipole moment (field-independent basis, Debye):
    X=              1.7465    Y=             -1.7384    Z=              1.2011  Tot=              2.7414
 Quadrupole moment (field-independent basis, Debye-Ang):
   XX=            -38.6484   YY=            -42.0418   ZZ=            -39.2895
   XY=              5.1543   XZ=             -3.7507   YZ=              0.4394

 Normal termination of Gaussian 16 at Wed Jun 19 16:39:05 2019.
