 Gaussian 16, Revision B.01,
 Gaussian 16:  ES64L-G16RevB.01 20-Dec-2017

 ----------------------------------------------------------------------
 # opt=(calcfc,ts,noeigentest,maxcyc=500) freq=noraman uB2PLYPD3/cc-pvt
 z
 ----------------------------------------------------------------------

 -------------------
 Title Card Required
 -------------------
 Symbolic Z-matrix:
 Charge =  0 Multiplicity = 2

 SCF Done:  E(UB2PLYPD3) =  -308.790881984     A.U. after   19 cycles
 E2(B2PLYPD3) =    -0.3921312317D+00 E(B2PLYPD3) =    -0.30918301321546D+03
 E2(B2PLYPD3) =    -0.3921312317D+00 E(B2PLYPD3) =    -0.30918301321546D+03
 SCF Done:  E(UB2PLYPD3) =  -308.790855311     A.U. after   14 cycles
 E2(B2PLYPD3) =    -0.3921866950D+00 E(B2PLYPD3) =    -0.30918304200599D+03
 SCF Done:  E(UB2PLYPD3) =  -308.790858077     A.U. after   12 cycles
 E2(B2PLYPD3) =    -0.3921858167D+00 E(B2PLYPD3) =    -0.30918304389353D+03
 SCF Done:  E(UB2PLYPD3) =  -308.790855166     A.U. after   12 cycles
 E2(B2PLYPD3) =    -0.3921891605D+00 E(B2PLYPD3) =    -0.30918304432681D+03
 SCF Done:  E(UB2PLYPD3) =  -308.790855268     A.U. after   11 cycles
 E2(B2PLYPD3) =    -0.3921890638D+00 E(B2PLYPD3) =    -0.30918304433179D+03
 Optimization completed on the basis of negligible forces.
    -- Stationary point found.

 1\1\GINC-N144\FTS\UB2PLYPD3-FC\CC-pVTZ\C4H11O2(2)\ROOT\24-Jun-2019\0\\
 # opt=(calcfc,ts,noeigentest,maxcyc=500) freq=noraman uB2PLYPD3/cc-pvt
 z\\Title Card Required\\0,2\C,1.6294278284,0.0093437681,0.374425828\H,
 1.7238464151,0.2535324953,1.4325374955\H,0.9329569134,-0.8276314686,0.
 3111732348\C,1.0708987076,1.1894227163,-0.3659906665\H,1.5582563583,2.
 1438370982,-0.1866287539\H,0.8396797689,1.0276736527,-1.4153604912\C,-
 2.3557570585,-0.2404018808,-0.1560959855\H,-1.7380768469,-0.2889087203
 ,-1.0547269707\H,-2.7124346715,-1.2354892796,0.1020068524\H,-3.1965193

 Normal termination of Gaussian 16 at Mon Jun 24 22:52:05 2019.

 ----------------------------------------------------------------------
 #N Geom=AllCheck Guess=TCheck SCRF=Check GenChk UB2PLYPD3(FC)/CC-pVTZ
 Freq
 ----------------------------------------------------------------------

 Structure from the checkpoint file:  "/localscratch/353444/Gau-50599.chk"
 -------------------
 Title Card Required
 -------------------
 Charge =  0 Multiplicity = 2

                         Standard orientation:
 ---------------------------------------------------------------------
 Center     Atomic      Atomic             Coordinates (Angstroms)
 Number     Number       Type             X           Y           Z
 ---------------------------------------------------------------------
      1          6           0       -1.525745   -0.172128   -0.366054
      2          1           0       -1.493073    0.215996   -1.384109
      3          1           0       -0.910137   -1.072444   -0.358445
      4          6           0       -0.949527    0.842814    0.577674
      5          1           0       -1.336495    1.854361    0.490356
      6          1           0       -0.838915    0.524216    1.610661
      7          6           0        2.352040   -0.865841    0.474822
      8          1           0        1.645343   -0.972485    1.299823
      9          1           0        2.650032   -1.848003    0.113446
     10          1           0        3.224012   -0.305010    0.806698
     11          8           0        1.739587   -0.228116   -0.636300
     12          8           0        1.422504    1.090594   -0.252714
     13          1           0        0.339401    1.013462    0.161228
     14          6           0       -2.971114   -0.539753   -0.002300
     15          1           0       -3.617151    0.336782   -0.033365
     16          1           0       -3.367131   -1.276644   -0.700163
     17          1           0       -3.026532   -0.960607    1.001127
 ---------------------------------------------------------------------

 SCF Done:  E(UB2PLYPD3) =  -308.790855268     A.U. after    1 cycles
 E2(B2PLYPD3) =    -0.3921890628D+00 E(B2PLYPD3) =    -0.30918304433076D+03
 E2(B2PLYPD3) =    -0.3921890628D+00 E(B2PLYPD3) =    -0.30918304433076D+03

 The electronic state is 2-A.
 Alpha  occ. eigenvalues --  -19.78461 -19.78208 -10.65983 -10.63604 -10.61847
 Alpha  occ. eigenvalues --  -10.61042  -1.27163  -1.01910  -0.91519  -0.80419
 Alpha  occ. eigenvalues --   -0.77355  -0.68996  -0.60873  -0.55870  -0.54674
 Alpha  occ. eigenvalues --   -0.54273  -0.51016  -0.49464  -0.47005  -0.45369
 Alpha  occ. eigenvalues --   -0.43930  -0.41919  -0.40354  -0.36872  -0.36417
 Alpha  occ. eigenvalues --   -0.29711
 Alpha virt. eigenvalues --    0.07068   0.09470   0.10817   0.12032   0.12655
 Alpha virt. eigenvalues --    0.14018   0.15322   0.16109   0.16740   0.17487
 Alpha virt. eigenvalues --    0.18686   0.20293   0.22274   0.26562   0.27941

  Beta  occ. eigenvalues --  -19.78319 -19.76610 -10.65992 -10.62337 -10.61904
  Beta  occ. eigenvalues --  -10.60915  -1.25321  -0.99033  -0.90246  -0.78432
  Beta  occ. eigenvalues --   -0.76732  -0.67929  -0.57488  -0.55041  -0.54020
  Beta  occ. eigenvalues --   -0.53868  -0.49974  -0.47273  -0.46501  -0.43588
  Beta  occ. eigenvalues --   -0.42614  -0.41499  -0.40173  -0.35234  -0.33406
  Beta virt. eigenvalues --   -0.04356   0.07241   0.09663   0.11171   0.12186
  Beta virt. eigenvalues --    0.12968   0.14453   0.15349   0.16258   0.16803
  Beta virt. eigenvalues --    0.17610   0.18946   0.20815   0.22903   0.27065

 Mulliken charges and spin densities:
               1          2
     1  C   -0.148943  -0.034906
     2  H    0.108631   0.003111
     3  H    0.106747   0.005911
     4  C   -0.301831   0.652905
     5  H    0.122991  -0.012228
     6  H    0.112807  -0.013261
     7  C   -0.059446  -0.003485
     8  H    0.067045   0.000674
     9  H    0.095683  -0.000845
    10  H    0.095527   0.002085
    11  O   -0.190505   0.025290
    12  O   -0.225992   0.408565
    13  H    0.218445  -0.074523
    14  C   -0.294936   0.032664
    15  H    0.095042  -0.000476
    16  H    0.105805   0.009446
    17  H    0.092930  -0.000927
 Sum of Mulliken charges =  -0.00000   1.00000

 Dipole moment (field-independent basis, Debye):
    X=             -1.3157    Y=             -1.2419    Z=              1.6695  Tot=              2.4618
 Quadrupole moment (field-independent basis, Debye-Ang):
   XX=            -38.0456   YY=            -38.8979   ZZ=            -39.9763
   XY=             -4.2266   XZ=              3.0734   YZ=             -0.0036

  Exact polarizability: 101.745  -4.647  62.153  -4.298   1.412  55.425
 Approx polarizability:  81.784  -2.692  70.951  -5.380   1.404  64.644

 ******    1 imaginary frequencies (negative Signs) ******

                      1                      2                      3
                      A                      A                      A
 Frequencies --  -1890.7077                17.4658                48.2597
 Red. masses --      1.1067                 2.0672                 2.3449
 Frc consts  --      2.3310                 0.0004                 0.0032
 IR Inten    --   1842.0933                 1.8025                 0.3134

                      4                      5                      6
                      A                      A                      A
 Frequencies --     93.0563                99.7295               190.8313
 Red. masses --      3.4035                 2.7962                 1.4187
 Frc consts  --      0.0174                 0.0164                 0.0304
 IR Inten    --      2.7624                 2.7802                 1.3625

                      7                      8                      9
                      A                      A                      A
 Frequencies --    247.4121               260.4000               359.1259
 Red. masses --      1.0821                 2.2431                 2.7807
 Frc consts  --      0.0390                 0.0896                 0.2113
 IR Inten    --      0.0373                 1.1310                 1.0888

                     10                     11                     12
                      A                      A                      A
 Frequencies --    455.3348               522.1225               566.6942
 Red. masses --      2.5951                 1.4014                 2.7636
 Frc consts  --      0.3170                 0.2251                 0.5229
 IR Inten    --      4.2228                 2.1637                 0.5415

                     13                     14                     15
                      A                      A                      A
 Frequencies --    757.5999               906.0439               912.1780
 Red. masses --      1.0754                 1.8709                 3.3909
 Frc consts  --      0.3637                 0.9049                 1.6623
 IR Inten    --      2.3015                 5.9457                13.0838

                     16                     17                     18
                      A                      A                      A
 Frequencies --    914.6714               980.3438              1053.0100
 Red. masses --      1.2444                 1.6632                 7.0720
 Frc consts  --      0.6134                 0.9418                 4.6202
 IR Inten    --      1.2904                 4.8410                35.4425

                     19                     20                     21
                      A                      A                      A
 Frequencies --   1064.5980              1111.9414              1162.8034
 Red. masses --      1.7229                 1.5751                 1.4914
 Frc consts  --      1.1505                 1.1474                 1.1881
 IR Inten    --     16.6372                10.9793                 0.9361

                     22                     23                     24
                      A                      A                      A
 Frequencies --   1177.5857              1216.3318              1222.7809
 Red. masses --      1.2737                 1.5769                 1.5945
 Frc consts  --      1.0407                 1.3745                 1.4047
 IR Inten    --      2.0495                 4.1987                 0.5035

                     25                     26                     27
                      A                      A                      A
 Frequencies --   1325.8556              1354.1982              1412.5221
 Red. masses --      1.1153                 1.3849                 1.2058
 Frc consts  --      1.1551                 1.4963                 1.4175
 IR Inten    --      0.2105                 0.3674                 0.5130

                     28                     29                     30
                      A                      A                      A
 Frequencies --   1452.5911              1458.8382              1478.3925
 Red. masses --      1.0640                 1.1319                 1.1269
 Frc consts  --      1.3227                 1.4193                 1.4511
 IR Inten    --     10.2939                 5.4856                 1.1672

                     31                     32                     33
                      A                      A                      A
 Frequencies --   1483.1924              1502.4033              1509.7972
 Red. masses --      1.0760                 1.0573                 1.0404
 Frc consts  --      1.3947                 1.4061                 1.3973
 IR Inten    --      9.5097                 3.4304                 7.2299

                     34                     35                     36
                      A                      A                      A
 Frequencies --   1517.5011              1521.7020              3034.0765
 Red. masses --      1.0532                 1.0827                 1.0316
 Frc consts  --      1.4290                 1.4771                 5.5953
 IR Inten    --     13.7785                 1.2491                37.1099

                     37                     38                     39
                      A                      A                      A
 Frequencies --   3048.5172              3057.7822              3091.8569
 Red. masses --      1.0339                 1.0591                 1.0982
 Frc consts  --      5.6614                 5.8346                 6.1854
 IR Inten    --     35.3188                 6.3062                 1.9920

                     40                     41                     42
                      A                      A                      A
 Frequencies --   3093.3423              3111.4252              3121.2720
 Red. masses --      1.0568                 1.1023                 1.1016
 Frc consts  --      5.9579                 6.2874                 6.3234
 IR Inten    --     15.0194                43.5398                30.5132

                     43                     44                     45
                      A                      A                      A
 Frequencies --   3124.3117              3144.8693              3175.9498
 Red. masses --      1.1034                 1.1050                 1.1116
 Frc consts  --      6.3458                 6.4390                 6.6059
 IR Inten    --     33.6642                15.5420                19.6872

 - Thermochemistry -
 -------------------
 Temperature   298.150 Kelvin.  Pressure   1.00000 Atm.
 Atom     1 has atomic number  6 and mass  12.00000

 Molecular mass:    91.07590 amu.
 Principal axes and moments of inertia in atomic units:
                           1         2         3
     Eigenvalues --   281.249841341.850501448.32269
           X            0.99984  -0.01082   0.01425
           Y            0.01078   0.99994   0.00252
           Z           -0.01428  -0.00236   0.99990
 This molecule is an asymmetric top.
 Rotational symmetry number  1.
 Rotational temperatures (Kelvin)      0.30796     0.06455     0.05980
 Rotational constants (GHZ):           6.41686     1.34496     1.24609
    1 imaginary frequencies ignored.
 Zero-point vibrational energy     372999.9 (Joules/Mol)
                                   89.14912 (Kcal/Mol)
 Warning -- explicit consideration of  11 degrees of freedom as
           vibrations may cause significant error
 Vibrational temperatures:     25.13    69.43   133.89   143.49   274.56
          (Kelvin)            355.97   374.66   516.70   655.13   751.22
                              815.35  1090.02  1303.60  1312.42  1316.01
                             1410.50  1515.05  1531.72  1599.84  1673.01
                             1694.28  1750.03  1759.31  1907.61  1948.39
                             2032.30  2089.95  2098.94  2127.08  2133.98
                             2161.62  2172.26  2183.35  2189.39  4365.36
                             4386.14  4399.47  4448.49  4450.63  4476.65
                             4490.81  4495.19  4524.77  4569.48

 Zero-point correction=                           0.142068 (Hartree/Particle)
 Thermal correction to Energy=                    0.151168
 Thermal correction to Enthalpy=                  0.152112
 Thermal correction to Gibbs Free Energy=         0.105839
 Sum of electronic and zero-point Energies=           -309.040976
 Sum of electronic and thermal Energies=              -309.031876
 Sum of electronic and thermal Enthalpies=            -309.030932
 Sum of electronic and thermal Free Energies=         -309.077205

                     E (Thermal)             CV                S
                      KCal/Mol        Cal/Mol-Kelvin    Cal/Mol-Kelvin
 Total                   94.859             29.705             97.390
 Electronic               0.000              0.000              1.377
 Translational            0.889              2.981             39.439
 Rotational               0.889              2.981             27.793
 Vibrational             93.082             23.744             28.780
 Vibration     1          0.593              1.986              6.903
 Vibration     2          0.595              1.978              4.887
 Vibration     3          0.602              1.954              3.595
 Vibration     4          0.604              1.949              3.460
 Vibration     5          0.634              1.853              2.220
 Vibration     6          0.661              1.767              1.749
 Vibration     7          0.668              1.745              1.659
 Vibration     8          0.734              1.556              1.126
 Vibration     9          0.814              1.349              0.780
 Vibration    10          0.877              1.201              0.605
 Vibration    11          0.923              1.103              0.511

 Optimization completed on the basis of negligible forces.
    -- Stationary point found.
 Normal termination of Gaussian 16 at Tue Jun 25 00:11:13 2019.
