 Gaussian 16, Revision B.01,
 Gaussian 16:  ES64L-G16RevB.01 20-Dec-2017

 ----------------------------------------------------------------------
 # opt=(calcfc,ts,noeigentest,maxcyc=500,modredundant) uB2PLYPD3/cc-pvt
 z scf=maxcyc=500 nosymm
 ----------------------------------------------------------------------

 -------------------
 Title Card Required
 -------------------
 Symbolic Z-matrix:
 Charge =  0 Multiplicity = 2

 SCF Done:  E(UB2PLYPD3) =  -308.795169251     A.U. after   19 cycles
 E2(B2PLYPD3) =    -0.3930559937D+00 E(B2PLYPD3) =    -0.30918822524449D+03
 E2(B2PLYPD3) =    -0.3930559937D+00 E(B2PLYPD3) =    -0.30918822524449D+03

  Exact polarizability:  97.997   1.572  61.015  -0.632   1.482  58.125
 Approx polarizability:  85.967  -0.230  66.190   0.758   3.365  67.217

 SCF Done:  E(UB2PLYPD3) =  -308.795173852     A.U. after    7 cycles
 E2(B2PLYPD3) =    -0.3930514003D+00 E(B2PLYPD3) =    -0.30918822525224D+03
 Optimization completed.
    -- Stationary point found.
 SCF Done:  E(UB2PLYPD3) =  -308.795045462     A.U. after   15 cycles
 E2(B2PLYPD3) =    -0.3931006851D+00 E(B2PLYPD3) =    -0.30918814614681D+03
 SCF Done:  E(UB2PLYPD3) =  -308.795183536     A.U. after   13 cycles
 E2(B2PLYPD3) =    -0.3929978326D+00 E(B2PLYPD3) =    -0.30918818136828D+03
 SCF Done:  E(UB2PLYPD3) =  -308.789909907     A.U. after   18 cycles
 E2(B2PLYPD3) =    -0.3944733465D+00 E(B2PLYPD3) =    -0.30918438325307D+03
 SCF Done:  E(UB2PLYPD3) =  -308.792216221     A.U. after   16 cycles
 E2(B2PLYPD3) =    -0.3931006026D+00 E(B2PLYPD3) =    -0.30918531682396D+03
 SCF Done:  E(UB2PLYPD3) =  -308.793871707     A.U. after   15 cycles
 E2(B2PLYPD3) =    -0.3932084152D+00 E(B2PLYPD3) =    -0.30918708012238D+03
 SCF Done:  E(UB2PLYPD3) =  -308.794954657     A.U. after   15 cycles
 E2(B2PLYPD3) =    -0.3931253684D+00 E(B2PLYPD3) =    -0.30918808002540D+03
 SCF Done:  E(UB2PLYPD3) =  -308.795083954     A.U. after   13 cycles
 E2(B2PLYPD3) =    -0.3930844294D+00 E(B2PLYPD3) =    -0.30918816838361D+03
 SCF Done:  E(UB2PLYPD3) =  -308.795154137     A.U. after   12 cycles
 E2(B2PLYPD3) =    -0.3930318643D+00 E(B2PLYPD3) =    -0.30918818600140D+03
 E2(B2PLYPD3) =    -0.3930320325D+00 E(B2PLYPD3) =    -0.30918818607800D+03
 Optimization completed.
 E2(B2PLYPD3) =    -0.3930763953D+00 E(B2PLYPD3) =    -0.30918805980971D+03
 E2(B2PLYPD3) =    -0.3929777134D+00 E(B2PLYPD3) =    -0.30918810127577D+03
 E2(B2PLYPD3) =    -0.3934190649D+00 E(B2PLYPD3) =    -0.30918759504132D+03
 E2(B2PLYPD3) =    -0.3930640654D+00 E(B2PLYPD3) =    -0.30918804606103D+03
 E2(B2PLYPD3) =    -0.3930208199D+00 E(B2PLYPD3) =    -0.30918809324740D+03
 E2(B2PLYPD3) =    -0.3930094860D+00 E(B2PLYPD3) =    -0.30918810499343D+03
 E2(B2PLYPD3) =    -0.3930070701D+00 E(B2PLYPD3) =    -0.30918810504869D+03
 E2(B2PLYPD3) =    -0.3930256469D+00 E(B2PLYPD3) =    -0.30918798770318D+03
 E2(B2PLYPD3) =    -0.3930385960D+00 E(B2PLYPD3) =    -0.30918814079928D+03
 E2(B2PLYPD3) =    -0.3929896744D+00 E(B2PLYPD3) =    -0.30918816038727D+03
 E2(B2PLYPD3) =    -0.3930083384D+00 E(B2PLYPD3) =    -0.30918816041177D+03
 E2(B2PLYPD3) =    -0.3930022272D+00 E(B2PLYPD3) =    -0.30918816126806D+03
 E2(B2PLYPD3) =    -0.3930250749D+00 E(B2PLYPD3) =    -0.30918811871438D+03
 E2(B2PLYPD3) =    -0.3929900749D+00 E(B2PLYPD3) =    -0.30918814573019D+03
 E2(B2PLYPD3) =    -0.3930063162D+00 E(B2PLYPD3) =    -0.30918814760679D+03
 E2(B2PLYPD3) =    -0.3930027171D+00 E(B2PLYPD3) =    -0.30918814777116D+03
 E2(B2PLYPD3) =    -0.3930050634D+00 E(B2PLYPD3) =    -0.30918814787794D+03
 E2(B2PLYPD3) =    -0.3930259594D+00 E(B2PLYPD3) =    -0.30918815570004D+03
 SCF Done:  E(UB2PLYPD3) =  -308.795178070     A.U. after   13 cycles
 E2(B2PLYPD3) =    -0.3930116012D+00 E(B2PLYPD3) =    -0.30918818967077D+03
 SCF Done:  E(UB2PLYPD3) =  -308.795155552     A.U. after   11 cycles
 E2(B2PLYPD3) =    -0.3930354886D+00 E(B2PLYPD3) =    -0.30918819104063D+03
 SCF Done:  E(UB2PLYPD3) =  -308.795157119     A.U. after    9 cycles
 E2(B2PLYPD3) =    -0.3930339856D+00 E(B2PLYPD3) =    -0.30918819110479D+03
 SCF Done:  E(UB2PLYPD3) =  -308.795155907     A.U. after    8 cycles
 E2(B2PLYPD3) =    -0.3930352228D+00 E(B2PLYPD3) =    -0.30918819112987D+03
    -- Stationary point found.
 SCF Done:  E(UB2PLYPD3) =  -308.795131256     A.U. after   15 cycles
 E2(B2PLYPD3) =    -0.3930693781D+00 E(B2PLYPD3) =    -0.30918820063361D+03
 SCF Done:  E(UB2PLYPD3) =  -308.795194056     A.U. after   12 cycles
 E2(B2PLYPD3) =    -0.3930296389D+00 E(B2PLYPD3) =    -0.30918822369453D+03
 SCF Done:  E(UB2PLYPD3) =  -308.795163878     A.U. after   10 cycles
 E2(B2PLYPD3) =    -0.3930604288D+00 E(B2PLYPD3) =    -0.30918822430640D+03
 SCF Done:  E(UB2PLYPD3) =  -308.795142956     A.U. after   12 cycles
 E2(B2PLYPD3) =    -0.3930599299D+00 E(B2PLYPD3) =    -0.30918820288594D+03
 SCF Done:  E(UB2PLYPD3) =  -308.795176394     A.U. after   12 cycles
 E2(B2PLYPD3) =    -0.3930487447D+00 E(B2PLYPD3) =    -0.30918822513834D+03
 SCF Done:  E(UB2PLYPD3) =  -308.795174024     A.U. after    9 cycles
 E2(B2PLYPD3) =    -0.3930512008D+00 E(B2PLYPD3) =    -0.30918822522433D+03
 Optimization completed.
    -- Stationary point found.

                          Input orientation:
 ---------------------------------------------------------------------
 Center     Atomic      Atomic             Coordinates (Angstroms)
 Number     Number       Type             X           Y           Z
 ---------------------------------------------------------------------
      1          6           0        1.703200   -0.029710   -1.134973
      2          1           0        1.221683   -1.006875   -1.102485
      3          1           0        1.410395    0.464755   -2.059357
      4          6           0        1.349820    0.792497    0.074149
      5          1           0        1.697673    1.822690    0.022675
      6          6           0       -2.002807   -0.870821    0.549120
      7          1           0       -1.134763   -1.411697    0.169004
      8          1           0       -2.433394   -1.408470    1.391527
      9          1           0       -2.741221   -0.757371   -0.242812
     10          8           0       -1.625427    0.396516    1.066633
     11          8           0       -1.145129    1.173031   -0.005479
     12          1           0        0.031125    1.005255    0.009725
     13          1           0        2.783682   -0.200723   -1.179814
     14          6           0        1.548463    0.152355    1.419477
     15          1           0        1.141173    0.765402    2.220614
     16          1           0        1.072030   -0.826701    1.466467
     17          1           0        2.615428    0.005633    1.617949
 ---------------------------------------------------------------------

 Alpha  occ. eigenvalues --  -19.78327 -19.78021 -10.65903 -10.64039 -10.61466
 Alpha  occ. eigenvalues --  -10.61125  -1.26974  -1.01608  -0.91993  -0.80480
 Alpha  occ. eigenvalues --   -0.77472  -0.69314  -0.60528  -0.55636  -0.54291
 Alpha  occ. eigenvalues --   -0.53312  -0.51836  -0.48614  -0.47942  -0.46239
 Alpha  occ. eigenvalues --   -0.43908  -0.42281  -0.41832  -0.36459  -0.36078
 Alpha  occ. eigenvalues --   -0.28940
 Alpha virt. eigenvalues --    0.07164   0.09605   0.10802   0.11975   0.13977
 Alpha virt. eigenvalues --    0.14111   0.14643   0.15725   0.17236   0.17873
 Alpha virt. eigenvalues --    0.19052   0.21117   0.22370   0.26556   0.27796

  Beta  occ. eigenvalues --  -19.78176 -19.76330 -10.65913 -10.62827 -10.61519
  Beta  occ. eigenvalues --  -10.61179  -1.25052  -0.98571  -0.90101  -0.80286
  Beta  occ. eigenvalues --   -0.77054  -0.66804  -0.57279  -0.54638  -0.53906
  Beta  occ. eigenvalues --   -0.52704  -0.50179  -0.48007  -0.45732  -0.44394
  Beta  occ. eigenvalues --   -0.42874  -0.41941  -0.41404  -0.34950  -0.32876
  Beta virt. eigenvalues --   -0.03799   0.07248   0.09727   0.10962   0.12170
  Beta virt. eigenvalues --    0.14220   0.14551   0.14969   0.15803   0.17281
  Beta virt. eigenvalues --    0.18008   0.19587   0.21479   0.22720   0.26738

 Mulliken charges and spin densities:
               1          2
     1  C   -0.290349  -0.027175
     2  H    0.098006   0.005077
     3  H    0.113396   0.003595
     4  C   -0.160148   0.578772
     5  H    0.120842  -0.006995
     6  C   -0.061535  -0.004388
     7  H    0.063361   0.002289
     8  H    0.097951  -0.001076
     9  H    0.093739   0.001684
    10  O   -0.190713   0.025915
    11  O   -0.228896   0.434500
    12  H    0.213662  -0.069543
    13  H    0.100330   0.035458
    14  C   -0.291944  -0.028870
    15  H    0.122487   0.004429
    16  H    0.097194   0.005411
    17  H    0.102616   0.040918
 Sum of Mulliken charges =  -0.00000   1.00000

 Dipole moment (field-independent basis, Debye):
    X=              1.6878    Y=             -1.8743    Z=             -0.3986  Tot=              2.5535
 Quadrupole moment (field-independent basis, Debye-Ang):
   XX=            -37.7166   YY=            -39.7974   ZZ=            -40.1075
   XY=              5.2562   XZ=              0.5803   YZ=             -1.2419

 Normal termination of Gaussian 16 at Wed Jun 19 06:00:46 2019.
