 Gaussian 16, Revision B.01,
 Gaussian 16:  ES64L-G16RevB.01 20-Dec-2017

 ----------------------------------------------------------------------
 # opt=(calcfc,ts,noeigentest,maxcyc=500,modredundant) uB2PLYPD3/cc-pvt
 z scf=maxcyc=500 nosymm
 ----------------------------------------------------------------------

 -------------------
 Title Card Required
 -------------------
 Symbolic Z-matrix:
 Charge =  0 Multiplicity = 2

 SCF Done:  E(UB2PLYPD3) =  -307.569199375     A.U. after   22 cycles
 E2(B2PLYPD3) =    -0.3831155337D+00 E(B2PLYPD3) =    -0.30795231490908D+03
 E2(B2PLYPD3) =    -0.3831155337D+00 E(B2PLYPD3) =    -0.30795231490908D+03

  Exact polarizability:  96.540   2.767  68.986   1.359  -1.418  46.917
 Approx polarizability:  80.328  -1.437  81.128   3.497  -0.996  55.066

 Optimization completed.
    -- Stationary point found.
 SCF Done:  E(UB2PLYPD3) =  -307.568905123     A.U. after   16 cycles
 E2(B2PLYPD3) =    -0.3832161609D+00 E(B2PLYPD3) =    -0.30795212128405D+03
 SCF Done:  E(UB2PLYPD3) =  -307.569136053     A.U. after   13 cycles
 E2(B2PLYPD3) =    -0.3830557119D+00 E(B2PLYPD3) =    -0.30795219176504D+03
 SCF Done:  E(UB2PLYPD3) =  -307.569099547     A.U. after   11 cycles
 E2(B2PLYPD3) =    -0.3830962039D+00 E(B2PLYPD3) =    -0.30795219575125D+03
 SCF Done:  E(UB2PLYPD3) =  -307.569096542     A.U. after    9 cycles
 E2(B2PLYPD3) =    -0.3830993394D+00 E(B2PLYPD3) =    -0.30795219588145D+03
 Optimization completed.
 SCF Done:  E(UB2PLYPD3) =  -307.568615191     A.U. after   15 cycles
 E2(B2PLYPD3) =    -0.3831554180D+00 E(B2PLYPD3) =    -0.30795177060891D+03
 SCF Done:  E(UB2PLYPD3) =  -307.568869308     A.U. after   15 cycles
 E2(B2PLYPD3) =    -0.3829829894D+00 E(B2PLYPD3) =    -0.30795185229758D+03
 SCF Done:  E(UB2PLYPD3) =  -307.568828856     A.U. after   12 cycles
 E2(B2PLYPD3) =    -0.3830301379D+00 E(B2PLYPD3) =    -0.30795185899407D+03
 SCF Done:  E(UB2PLYPD3) =  -307.568826177     A.U. after   10 cycles
 E2(B2PLYPD3) =    -0.3830330469D+00 E(B2PLYPD3) =    -0.30795185922414D+03
 SCF Done:  E(UB2PLYPD3) =  -307.568825946     A.U. after    6 cycles
 E2(B2PLYPD3) =    -0.3830333109D+00 E(B2PLYPD3) =    -0.30795185925673D+03
 E2(B2PLYPD3) =    -0.3830334068D+00 E(B2PLYPD3) =    -0.30795185926601D+03
 E2(B2PLYPD3) =    -0.3830401317D+00 E(B2PLYPD3) =    -0.30795127939542D+03
 E2(B2PLYPD3) =    -0.3828812442D+00 E(B2PLYPD3) =    -0.30795136067540D+03
 E2(B2PLYPD3) =    -0.3829154059D+00 E(B2PLYPD3) =    -0.30795136772342D+03
 E2(B2PLYPD3) =    -0.3829194803D+00 E(B2PLYPD3) =    -0.30795136796398D+03
 E2(B2PLYPD3) =    -0.3828879584D+00 E(B2PLYPD3) =    -0.30795074569734D+03
 E2(B2PLYPD3) =    -0.3827687544D+00 E(B2PLYPD3) =    -0.30795081729161D+03
 E2(B2PLYPD3) =    -0.3827774069D+00 E(B2PLYPD3) =    -0.30795082322922D+03
 E2(B2PLYPD3) =    -0.3827734761D+00 E(B2PLYPD3) =    -0.30795082411302D+03
 E2(B2PLYPD3) =    -0.3828072718D+00 E(B2PLYPD3) =    -0.30795143581661D+03
 E2(B2PLYPD3) =    -0.3828768078D+00 E(B2PLYPD3) =    -0.30795145224105D+03
 E2(B2PLYPD3) =    -0.3828545139D+00 E(B2PLYPD3) =    -0.30795145277132D+03
 E2(B2PLYPD3) =    -0.3828572261D+00 E(B2PLYPD3) =    -0.30795145274993D+03
 E2(B2PLYPD3) =    -0.3828563451D+00 E(B2PLYPD3) =    -0.30795145275172D+03
 E2(B2PLYPD3) =    -0.3829916024D+00 E(B2PLYPD3) =    -0.30795187490437D+03
 E2(B2PLYPD3) =    -0.3829884140D+00 E(B2PLYPD3) =    -0.30795188956031D+03
 E2(B2PLYPD3) =    -0.3829839534D+00 E(B2PLYPD3) =    -0.30795189062528D+03
 E2(B2PLYPD3) =    -0.3829836490D+00 E(B2PLYPD3) =    -0.30795189056160D+03
 E2(B2PLYPD3) =    -0.3831338555D+00 E(B2PLYPD3) =    -0.30795217352829D+03
 SCF Done:  E(UB2PLYPD3) =  -307.569170706     A.U. after   13 cycles
 E2(B2PLYPD3) =    -0.3830280646D+00 E(B2PLYPD3) =    -0.30795219877058D+03
 SCF Done:  E(UB2PLYPD3) =  -307.569122966     A.U. after   12 cycles
 E2(B2PLYPD3) =    -0.3830792692D+00 E(B2PLYPD3) =    -0.30795220223565D+03
 SCF Done:  E(UB2PLYPD3) =  -307.568778482     A.U. after   17 cycles
 E2(B2PLYPD3) =    -0.3828418947D+00 E(B2PLYPD3) =    -0.30795162037633D+03
 SCF Done:  E(UB2PLYPD3) =  -307.569074259     A.U. after   17 cycles
 E2(B2PLYPD3) =    -0.3830704608D+00 E(B2PLYPD3) =    -0.30795214472008D+03
 SCF Done:  E(UB2PLYPD3) =  -307.569129429     A.U. after   14 cycles
 E2(B2PLYPD3) =    -0.3830713445D+00 E(B2PLYPD3) =    -0.30795220077370D+03
 SCF Done:  E(UB2PLYPD3) =  -307.569130087     A.U. after   10 cycles
 E2(B2PLYPD3) =    -0.3830722769D+00 E(B2PLYPD3) =    -0.30795220236373D+03
    -- Stationary point found.
 SCF Done:  E(UB2PLYPD3) =  -307.569052231     A.U. after   16 cycles
 E2(B2PLYPD3) =    -0.3832115246D+00 E(B2PLYPD3) =    -0.30795226375523D+03
 SCF Done:  E(UB2PLYPD3) =  -307.569244310     A.U. after   13 cycles
 E2(B2PLYPD3) =    -0.3830668165D+00 E(B2PLYPD3) =    -0.30795231112644D+03
 SCF Done:  E(UB2PLYPD3) =  -307.569203548     A.U. after   12 cycles
 E2(B2PLYPD3) =    -0.3831118944D+00 E(B2PLYPD3) =    -0.30795231544213D+03
 SCF Done:  E(UB2PLYPD3) =  -307.569204275     A.U. after    9 cycles
 E2(B2PLYPD3) =    -0.3831112755D+00 E(B2PLYPD3) =    -0.30795231555084D+03
 Optimization completed.
    -- Stationary point found.

                          Input orientation:
 ---------------------------------------------------------------------
 Center     Atomic      Atomic             Coordinates (Angstroms)
 Number     Number       Type             X           Y           Z
 ---------------------------------------------------------------------
      1          6           0        1.277332    0.564318    0.077333
      2          6           0        1.536432    0.249256    1.325028
      3          6           0       -1.984327   -0.922087    0.815291
      4          1           0       -1.091984   -1.487653    0.543389
      5          1           0       -2.394997   -1.301176    1.749038
      6          1           0       -2.726540   -0.991723    0.022013
      7          8           0       -1.658516    0.436022    1.076170
      8          8           0       -1.201714    1.003186   -0.135604
      9          1           0       -0.090246    0.847179   -0.091196
     10          1           0        2.545011   -0.002286    1.644615
     11          1           0        0.756610    0.237632    2.075499
     12          6           0        2.073556    0.684452   -1.162094
     13          1           0        2.026826    1.697695   -1.560224
     14          1           0        3.120500    0.439861   -0.963521
     15          1           0        1.702312    0.010794   -1.933905
 ---------------------------------------------------------------------

 Alpha  occ. eigenvalues --  -19.78447 -19.78129 -10.65769 -10.65484 -10.63263
 Alpha  occ. eigenvalues --  -10.61896  -1.27088  -1.02222  -0.92891  -0.81836
 Alpha  occ. eigenvalues --   -0.77529  -0.65646  -0.60316  -0.55589  -0.54238
 Alpha  occ. eigenvalues --   -0.53428  -0.51639  -0.50336  -0.48784  -0.46592
 Alpha  occ. eigenvalues --   -0.43775  -0.36929  -0.36713  -0.32466  -0.29936
 Alpha virt. eigenvalues --    0.05983   0.07727   0.09851   0.11333   0.13159
 Alpha virt. eigenvalues --    0.14127   0.15073   0.15425   0.17136   0.17640
 Alpha virt. eigenvalues --    0.18653   0.22607   0.26620   0.29025   0.29527

  Beta  occ. eigenvalues --  -19.78318 -19.76711 -10.65776 -10.63961 -10.63233
  Beta  occ. eigenvalues --  -10.62107  -1.25414  -0.99662  -0.90684  -0.81582
  Beta  occ. eigenvalues --   -0.77168  -0.61984  -0.57964  -0.54680  -0.53929
  Beta  occ. eigenvalues --   -0.51702  -0.50405  -0.49900  -0.46314  -0.45238
  Beta  occ. eigenvalues --   -0.43063  -0.35653  -0.33693  -0.31998
  Beta virt. eigenvalues --   -0.04873   0.06983   0.07941   0.09913   0.11584
  Beta virt. eigenvalues --    0.13640   0.14286   0.15323   0.15578   0.17296
  Beta virt. eigenvalues --    0.17806   0.19107   0.23031   0.27073   0.29313

 Mulliken charges and spin densities:
               1          2
     1  C   -0.039251   0.712686
     2  C   -0.323434  -0.148979
     3  C   -0.066410  -0.002976
     4  H    0.073831   0.000185
     5  H    0.095238  -0.000721
     6  H    0.096196   0.001725
     7  O   -0.191597   0.022506
     8  O   -0.228876   0.359094
     9  H    0.223905  -0.074274
    10  H    0.130586   0.062467
    11  H    0.159475   0.021857
    12  C   -0.263822  -0.004082
    13  H    0.117833   0.003617
    14  H    0.103439   0.043318
    15  H    0.112885   0.003576
 Sum of Mulliken charges =  -0.00000   1.00000

 Dipole moment (field-independent basis, Debye):
    X=              1.9686    Y=             -1.9204    Z=             -0.4338  Tot=              2.7841
 Quadrupole moment (field-independent basis, Debye-Ang):
   XX=            -35.0147   YY=            -39.6593   ZZ=            -36.4466
   XY=              4.8521   XZ=             -1.0997   YZ=             -2.4429

 1\1\GINC-N189\Scan\UB2PLYPD3-FC\CC-pVTZ\C4H9O2(2)\ROOT\17-Jun-2019\0\\
 # opt=(calcfc,ts,noeigentest,maxcyc=500,modredundant) uB2PLYPD3/cc-pvt
 z scf=maxcyc=500 nosymm\\Title Card Required\\0,2\C,1.2773319029,0.564
 3183271,0.0773328301\C,1.5364323976,0.2492555984,1.3250277745\C,-1.984
 327359,-0.9220872927,0.8152908479\H,-1.0919838382,-1.4876532258,0.5433
 89499\H,-2.3949967826,-1.3011759519,1.7490381066\H,-2.7265396305,-0.99
 1723482,0.0220129538\O,-1.6585164928,0.4360220317,1.0761699096\O,-1.20
 17138176,1.003185772,-0.1356038091\H,-0.0902463856,0.8471789242,-0.091

 Normal termination of Gaussian 16 at Mon Jun 17 22:29:50 2019.
