 Gaussian 16, Revision B.01,
 Gaussian 16:  ES64L-G16RevB.01 20-Dec-2017

 ----------------------------------------------------------------------
 # opt=(calcfc,ts,noeigentest,maxcyc=500,modredundant) uB2PLYPD3/cc-pvt
 z scf=maxcyc=500 nosymm
 ----------------------------------------------------------------------

 -------------------
 Title Card Required
 -------------------
 Symbolic Z-matrix:
 Charge =  0 Multiplicity = 2

 SCF Done:  E(UB2PLYPD3) =  -348.023850816     A.U. after   19 cycles
 E2(B2PLYPD3) =    -0.4486176315D+00 E(B2PLYPD3) =    -0.34847246844731D+03
 E2(B2PLYPD3) =    -0.4486176315D+00 E(B2PLYPD3) =    -0.34847246844731D+03

  Exact polarizability: 122.789  -8.600  71.999  -3.910   0.829  66.959
 Approx polarizability:  98.061  -5.005  78.617  -2.249  -1.718  80.303

 Optimization completed.
    -- Stationary point found.
 SCF Done:  E(UB2PLYPD3) =  -348.023856415     A.U. after   14 cycles
 E2(B2PLYPD3) =    -0.4485868780D+00 E(B2PLYPD3) =    -0.34847244329321D+03
 SCF Done:  E(UB2PLYPD3) =  -348.023872762     A.U. after   12 cycles
 E2(B2PLYPD3) =    -0.4485763340D+00 E(B2PLYPD3) =    -0.34847244909634D+03
 SCF Done:  E(UB2PLYPD3) =  -348.023870474     A.U. after    9 cycles
 E2(B2PLYPD3) =    -0.4485786442D+00 E(B2PLYPD3) =    -0.34847244911810D+03
 Optimization completed.
 SCF Done:  E(UB2PLYPD3) =  -348.023844787     A.U. after   13 cycles
 E2(B2PLYPD3) =    -0.4485577590D+00 E(B2PLYPD3) =    -0.34847240254631D+03
 SCF Done:  E(UB2PLYPD3) =  -348.023875949     A.U. after   12 cycles
 E2(B2PLYPD3) =    -0.4485343688D+00 E(B2PLYPD3) =    -0.34847241031806D+03
 SCF Done:  E(UB2PLYPD3) =  -348.023872994     A.U. after    9 cycles
 E2(B2PLYPD3) =    -0.4485373747D+00 E(B2PLYPD3) =    -0.34847241036862D+03
 SCF Done:  E(UB2PLYPD3) =  -348.023840310     A.U. after   13 cycles
 E2(B2PLYPD3) =    -0.4485213861D+00 E(B2PLYPD3) =    -0.34847236169561D+03
 SCF Done:  E(UB2PLYPD3) =  -348.023870572     A.U. after   12 cycles
 E2(B2PLYPD3) =    -0.4484992088D+00 E(B2PLYPD3) =    -0.34847236978111D+03
 SCF Done:  E(UB2PLYPD3) =  -348.023868637     A.U. after    9 cycles
 E2(B2PLYPD3) =    -0.4485011716D+00 E(B2PLYPD3) =    -0.34847236980886D+03
 E2(B2PLYPD3) =    -0.4484862202D+00 E(B2PLYPD3) =    -0.34847232835198D+03
 E2(B2PLYPD3) =    -0.4484691184D+00 E(B2PLYPD3) =    -0.34847233522007D+03
 E2(B2PLYPD3) =    -0.4484552529D+00 E(B2PLYPD3) =    -0.34847230698533D+03
 E2(B2PLYPD3) =    -0.4484435892D+00 E(B2PLYPD3) =    -0.34847231267193D+03
 E2(B2PLYPD3) =    -0.4484436799D+00 E(B2PLYPD3) =    -0.34847231266814D+03
 E2(B2PLYPD3) =    -0.4484315555D+00 E(B2PLYPD3) =    -0.34847230383095D+03
 E2(B2PLYPD3) =    -0.4484255998D+00 E(B2PLYPD3) =    -0.34847230857539D+03
 E2(B2PLYPD3) =    -0.4484257594D+00 E(B2PLYPD3) =    -0.34847230859022D+03
 E2(B2PLYPD3) =    -0.4484193696D+00 E(B2PLYPD3) =    -0.34847232634510D+03
 E2(B2PLYPD3) =    -0.4486976042D+00 E(B2PLYPD3) =    -0.34847240813829D+03
 E2(B2PLYPD3) =    -0.4486493523D+00 E(B2PLYPD3) =    -0.34847233479197D+03
 E2(B2PLYPD3) =    -0.4486591649D+00 E(B2PLYPD3) =    -0.34847234424465D+03
 E2(B2PLYPD3) =    -0.4486591325D+00 E(B2PLYPD3) =    -0.34847234457641D+03
 E2(B2PLYPD3) =    -0.4486077098D+00 E(B2PLYPD3) =    -0.34847232323226D+03
 E2(B2PLYPD3) =    -0.4486287941D+00 E(B2PLYPD3) =    -0.34847233588466D+03
 E2(B2PLYPD3) =    -0.4486381087D+00 E(B2PLYPD3) =    -0.34847233676104D+03
 E2(B2PLYPD3) =    -0.4486406240D+00 E(B2PLYPD3) =    -0.34847233696392D+03
 E2(B2PLYPD3) =    -0.4486404960D+00 E(B2PLYPD3) =    -0.34847233715937D+03
 E2(B2PLYPD3) =    -0.4486405799D+00 E(B2PLYPD3) =    -0.34847233729993D+03
 SCF Done:  E(UB2PLYPD3) =  -348.023696497     A.U. after    6 cycles
 E2(B2PLYPD3) =    -0.4486408709D+00 E(B2PLYPD3) =    -0.34847233736758D+03
 SCF Done:  E(UB2PLYPD3) =  -348.023771215     A.U. after   14 cycles
 E2(B2PLYPD3) =    -0.4485854224D+00 E(B2PLYPD3) =    -0.34847235663777D+03
 SCF Done:  E(UB2PLYPD3) =  -348.023756818     A.U. after   12 cycles
 E2(B2PLYPD3) =    -0.4486227314D+00 E(B2PLYPD3) =    -0.34847237954963D+03
 SCF Done:  E(UB2PLYPD3) =  -348.023739988     A.U. after   11 cycles
 E2(B2PLYPD3) =    -0.4486413552D+00 E(B2PLYPD3) =    -0.34847238134349D+03
 SCF Done:  E(UB2PLYPD3) =  -348.023834906     A.U. after   14 cycles
 E2(B2PLYPD3) =    -0.4485859136D+00 E(B2PLYPD3) =    -0.34847242081930D+03
 SCF Done:  E(UB2PLYPD3) =  -348.023817143     A.U. after   12 cycles
 E2(B2PLYPD3) =    -0.4486247510D+00 E(B2PLYPD3) =    -0.34847244189363D+03
 SCF Done:  E(UB2PLYPD3) =  -348.023801942     A.U. after   11 cycles
 E2(B2PLYPD3) =    -0.4486412938D+00 E(B2PLYPD3) =    -0.34847244323604D+03
    -- Stationary point found.
 SCF Done:  E(UB2PLYPD3) =  -348.023864599     A.U. after   14 cycles
 E2(B2PLYPD3) =    -0.4485951183D+00 E(B2PLYPD3) =    -0.34847245971754D+03
 SCF Done:  E(UB2PLYPD3) =  -348.023853818     A.U. after   12 cycles
 E2(B2PLYPD3) =    -0.4486148892D+00 E(B2PLYPD3) =    -0.34847246870696D+03
 SCF Done:  E(UB2PLYPD3) =  -348.023850230     A.U. after   10 cycles
 E2(B2PLYPD3) =    -0.4486187307D+00 E(B2PLYPD3) =    -0.34847246896076D+03
 Optimization completed.
    -- Stationary point found.

                          Input orientation:
 ---------------------------------------------------------------------
 Center     Atomic      Atomic             Coordinates (Angstroms)
 Number     Number       Type             X           Y           Z
 ---------------------------------------------------------------------
      1          6           0       -2.793396    0.571332    0.936096
      2          1           0       -1.795995    0.556453    1.379436
      3          1           0       -3.429821    1.263401    1.483836
      4          1           0       -3.220395   -0.429981    0.956127
      5          8           0       -2.750710    1.072621   -0.391099
      6          8           0       -2.024817    0.153089   -1.173890
      7          1           0       -0.925438    0.530402   -1.118825
      8          6           0        0.362816    0.953274   -1.003742
      9          6           0        1.156281   -0.168575   -0.400549
     10          1           0        0.220986    1.832712   -0.380697
     11          1           0        0.599770    1.203822   -2.033867
     12          6           0        2.641595    0.187362   -0.233956
     13          1           0        0.745668   -0.434820    0.575481
     14          1           0        1.076388   -1.059367   -1.026951
     15          6           0        3.443049   -0.955664    0.380294
     16          1           0        3.057357    0.450455   -1.208335
     17          1           0        2.728071    1.078882    0.390122
     18          1           0        4.492864   -0.688074    0.491443
     19          1           0        3.058428   -1.216426    1.366371
     20          1           0        3.389634   -1.848429   -0.242765
 ---------------------------------------------------------------------

 Alpha  occ. eigenvalues --  -19.78289 -19.78175 -10.65892 -10.63587 -10.62051
 Alpha  occ. eigenvalues --  -10.61879 -10.60679  -1.27059  -1.01818  -0.92918
 Alpha  occ. eigenvalues --   -0.85108  -0.77541  -0.74210  -0.68136  -0.60526
 Alpha  occ. eigenvalues --   -0.56297  -0.55236  -0.54225  -0.50755  -0.50278
 Alpha  occ. eigenvalues --   -0.49987  -0.47074  -0.43913  -0.43163  -0.42632
 Alpha  occ. eigenvalues --   -0.41108  -0.39749  -0.36347  -0.36237  -0.29763
 Alpha virt. eigenvalues --    0.06918   0.08782   0.09942   0.10960   0.12221
 Alpha virt. eigenvalues --    0.13144   0.14355   0.15593   0.15848   0.16166
 Alpha virt. eigenvalues --    0.16608   0.17790   0.20085   0.22139   0.22686

  Beta  occ. eigenvalues --  -19.78158 -19.76562 -10.65901 -10.62324 -10.62109
  Beta  occ. eigenvalues --  -10.61760 -10.60659  -1.25206  -0.98924  -0.92092
  Beta  occ. eigenvalues --   -0.83574  -0.77135  -0.72407  -0.67656  -0.57227
  Beta  occ. eigenvalues --   -0.55885  -0.54178  -0.53914  -0.50410  -0.49604
  Beta  occ. eigenvalues --   -0.47865  -0.45305  -0.43211  -0.42738  -0.41339
  Beta  occ. eigenvalues --   -0.40732  -0.39653  -0.35122  -0.33077
  Beta virt. eigenvalues --   -0.04380   0.07020   0.08852   0.10189   0.11097
  Beta virt. eigenvalues --    0.12307   0.13743   0.14616   0.15690   0.15968
  Beta virt. eigenvalues --    0.16201   0.16727   0.17951   0.20423   0.22712

 Mulliken charges and spin densities:
               1          2
     1  C   -0.052375  -0.003818
     2  H    0.062462   0.001424
     3  H    0.098132  -0.001009
     4  H    0.083324   0.002134
     5  O   -0.188732   0.023738
     6  O   -0.223620   0.413432
     7  H    0.218709  -0.075971
     8  C   -0.304952   0.655314
     9  C   -0.156114  -0.037953
    10  H    0.121672  -0.013852
    11  H    0.123336  -0.013423
    12  C   -0.160380   0.030765
    13  H    0.098455   0.004910
    14  H    0.103186   0.005544
    15  C   -0.305544   0.008945
    16  H    0.094780  -0.000645
    17  H    0.092854  -0.000218
    18  H    0.105542   0.001462
    19  H    0.093716  -0.000399
    20  H    0.095546  -0.000381
 Sum of Mulliken charges =  -0.00000   1.00000

 Dipole moment (field-independent basis, Debye):
    X=              2.1595    Y=             -0.0420    Z=              1.8121  Tot=              2.8193
 Quadrupole moment (field-independent basis, Debye-Ang):
   XX=            -48.9857   YY=            -46.9273   ZZ=            -45.7428
   XY=              1.6282   XZ=             -7.3689   YZ=              1.1799

 Normal termination of Gaussian 16 at Tue Jun 18 05:14:15 2019.
