 Gaussian 16, Revision B.01,
 Gaussian 16:  ES64L-G16RevB.01 20-Dec-2017

 ----------------------------------------------------------------------
 # opt=(calcfc,ts,noeigentest,maxcyc=500) freq=noraman uB2PLYPD3/cc-pvt
 z
 ----------------------------------------------------------------------

 -------------------
 Title Card Required
 -------------------
 Symbolic Z-matrix:
 Charge =  0 Multiplicity = 2

 SCF Done:  E(UB2PLYPD3) =  -269.557567588     A.U. after   19 cycles
 E2(B2PLYPD3) =    -0.3350405248D+00 E(B2PLYPD3) =    -0.26989260811288D+03
 E2(B2PLYPD3) =    -0.3350405248D+00 E(B2PLYPD3) =    -0.26989260811288D+03
 SCF Done:  E(UB2PLYPD3) =  -269.557802451     A.U. after   15 cycles
 E2(B2PLYPD3) =    -0.3354669428D+00 E(B2PLYPD3) =    -0.26989326939414D+03
 SCF Done:  E(UB2PLYPD3) =  -269.557803917     A.U. after   13 cycles
 E2(B2PLYPD3) =    -0.3354873011D+00 E(B2PLYPD3) =    -0.26989329121841D+03
 SCF Done:  E(UB2PLYPD3) =  -269.557839986     A.U. after   13 cycles
 E2(B2PLYPD3) =    -0.3354596331D+00 E(B2PLYPD3) =    -0.26989329961878D+03
 SCF Done:  E(UB2PLYPD3) =  -269.557865034     A.U. after   13 cycles
 E2(B2PLYPD3) =    -0.3354385578D+00 E(B2PLYPD3) =    -0.26989330359184D+03
 SCF Done:  E(UB2PLYPD3) =  -269.557865755     A.U. after   12 cycles
 E2(B2PLYPD3) =    -0.3354388511D+00 E(B2PLYPD3) =    -0.26989330460565D+03
 SCF Done:  E(UB2PLYPD3) =  -269.557864848     A.U. after   11 cycles
 E2(B2PLYPD3) =    -0.3354400478D+00 E(B2PLYPD3) =    -0.26989330489566D+03
 SCF Done:  E(UB2PLYPD3) =  -269.557865849     A.U. after   10 cycles
 E2(B2PLYPD3) =    -0.3354391335D+00 E(B2PLYPD3) =    -0.26989330498292D+03
 SCF Done:  E(UB2PLYPD3) =  -269.557867653     A.U. after    9 cycles
 E2(B2PLYPD3) =    -0.3354373677D+00 E(B2PLYPD3) =    -0.26989330502038D+03
 SCF Done:  E(UB2PLYPD3) =  -269.557868606     A.U. after    6 cycles
 E2(B2PLYPD3) =    -0.3354364428D+00 E(B2PLYPD3) =    -0.26989330504907D+03
 SCF Done:  E(UB2PLYPD3) =  -269.557868727     A.U. after   10 cycles
 E2(B2PLYPD3) =    -0.3354363412D+00 E(B2PLYPD3) =    -0.26989330506802D+03
 Optimization completed.
    -- Stationary point found.
 Normal termination of Gaussian 16 at Wed Jun  5 16:53:57 2019.

 ----------------------------------------------------------------------
 #N Geom=AllCheck Guess=TCheck SCRF=Check GenChk UB2PLYPD3(FC)/CC-pVTZ
 Freq
 ----------------------------------------------------------------------

 Structure from the checkpoint file:  "/localscratch/341085/Gau-55767.chk"
 -------------------
 Title Card Required
 -------------------
 Charge =  0 Multiplicity = 2

                         Standard orientation:
 ---------------------------------------------------------------------
 Center     Atomic      Atomic             Coordinates (Angstroms)
 Number     Number       Type             X           Y           Z
 ---------------------------------------------------------------------
      1          6           0       -1.982674   -0.724646   -0.306743
      2          1           0       -2.946800   -1.159976   -0.026087
      3          1           0       -2.043169   -0.432896   -1.353179
      4          1           0       -1.232058   -1.508554   -0.220200
      5          6           0       -1.655337    0.447914    0.568584
      6          1           0       -2.239314    1.348620    0.407288
      7          1           0       -1.494167    0.233852    1.620415
      8          6           0        1.912649   -0.595644    0.485240
      9          1           0        1.245612   -0.810603    1.322046
     10          1           0        2.388252   -1.513513    0.145662
     11          1           0        2.665311    0.128943    0.790849
     12          8           0        1.181635   -0.116387   -0.634050
     13          8           0        0.622753    1.127763   -0.280344
     14          1           0       -0.426605    0.857372    0.145871
 ---------------------------------------------------------------------

 SCF Done:  E(UB2PLYPD3) =  -269.557868727     A.U. after    1 cycles
 E2(B2PLYPD3) =    -0.3354363412D+00 E(B2PLYPD3) =    -0.26989330506799D+03
 E2(B2PLYPD3) =    -0.3354363412D+00 E(B2PLYPD3) =    -0.26989330506799D+03

 The electronic state is 2-A.
 Alpha  occ. eigenvalues --  -19.78528 -19.78265 -10.66032 -10.63891 -10.61392
 Alpha  occ. eigenvalues --   -1.27240  -1.01943  -0.89078  -0.77741  -0.72830
 Alpha  occ. eigenvalues --   -0.60878  -0.55800  -0.54449  -0.53179  -0.50936
 Alpha  occ. eigenvalues --   -0.47855  -0.46009  -0.43963  -0.42840  -0.37063
 Alpha  occ. eigenvalues --   -0.36495  -0.29821
 Alpha virt. eigenvalues --    0.07294   0.10171   0.10841   0.12831   0.14139
 Alpha virt. eigenvalues --    0.15068   0.15421   0.17515   0.17877   0.20997
 Alpha virt. eigenvalues --    0.24684   0.27916   0.29266   0.30460   0.31642

  Beta  occ. eigenvalues --  -19.78381 -19.76656 -10.66041 -10.62628 -10.61450
  Beta  occ. eigenvalues --   -1.25383  -0.99043  -0.87034  -0.77317  -0.70476
  Beta  occ. eigenvalues --   -0.57505  -0.54715  -0.54098  -0.52526  -0.48938
  Beta  occ. eigenvalues --   -0.45573  -0.44533  -0.43027  -0.42476  -0.35280
  Beta  occ. eigenvalues --   -0.33503
  Beta virt. eigenvalues --   -0.04278   0.07442   0.10280   0.11252   0.13161
  Beta virt. eigenvalues --    0.14628   0.15207   0.15466   0.17725   0.18030
  Beta virt. eigenvalues --    0.21646   0.25059   0.28622   0.29992   0.30652

 Mulliken charges and spin densities:
               1          2
     1  C   -0.272106  -0.032071
     2  H    0.104726   0.040572
     3  H    0.112141   0.004119
     4  H    0.107504   0.006887
     5  C   -0.288362   0.642983
     6  H    0.123738  -0.011193
     7  H    0.114917  -0.012017
     8  C   -0.058474  -0.003628
     9  H    0.066860   0.000754
    10  H    0.095399  -0.000876
    11  H    0.095096   0.002097
    12  O   -0.190401   0.025987
    13  O   -0.226646   0.412051
    14  H    0.215608  -0.075667
 Sum of Mulliken charges =   0.00000   1.00000

 Dipole moment (field-independent basis, Debye):
    X=             -0.9920    Y=             -1.3707    Z=              1.7655  Tot=              2.4454
 Quadrupole moment (field-independent basis, Debye-Ang):
   XX=            -28.4840   YY=            -33.3299   ZZ=            -33.3460
   XY=             -2.6642   XZ=              1.7999   YZ=              0.1278

  Exact polarizability:  83.404  -1.242  50.288  -4.454   0.618  45.416
 Approx polarizability:  68.663  -1.089  57.194  -5.602   0.161  51.638

 ******    1 imaginary frequencies (negative Signs) ******

                      1                      2                      3
                      A                      A                      A
 Frequencies --  -1897.9082                19.2088                86.0374
 Red. masses --      1.1062                 2.2290                 2.3086
 Frc consts  --      2.3476                 0.0005                 0.0101
 IR Inten    --   1698.5763                 1.9048                 1.7269

                      4                      5                      6
                      A                      A                      A
 Frequencies --    117.6179               147.5504               204.5217
 Red. masses --      2.5566                 1.2172                 1.2792
 Frc consts  --      0.0208                 0.0156                 0.0315
 IR Inten    --      2.6370                 0.3872                 2.2325

                      7                      8                      9
                      A                      A                      A
 Frequencies --    301.1907               450.6154               514.5810
 Red. masses --      2.6390                 2.2720                 1.5254
 Frc consts  --      0.1411                 0.2718                 0.2380
 IR Inten    --      1.3990                 3.8388                 1.8699

                     10                     11                     12
                      A                      A                      A
 Frequencies --    552.4684               829.9002               877.3125
 Red. masses --      3.1468                 1.0500                 1.2544
 Frc consts  --      0.5659                 0.4261                 0.5688
 IR Inten    --      0.3535                 3.8313                25.6453

                     13                     14                     15
                      A                      A                      A
 Frequencies --    920.0007              1047.9944              1054.2359
 Red. masses --      3.5992                 2.4946                 7.1262
 Frc consts  --      1.7949                 1.6143                 4.6664
 IR Inten    --      8.1805                 2.4439                40.2710

                     16                     17                     18
                      A                      A                      A
 Frequencies --   1097.2724              1177.5061              1192.3984
 Red. masses --      1.2256                 1.2720                 1.4972
 Frc consts  --      0.8694                 1.0391                 1.2542
 IR Inten    --     13.6706                 2.3785                 3.6402

                     19                     20                     21
                      A                      A                      A
 Frequencies --   1217.8799              1235.5234              1412.1786
 Red. masses --      1.5707                 1.3954                 1.1972
 Frc consts  --      1.3727                 1.2550                 1.4067
 IR Inten    --      3.5776                 1.6314                 5.6309

                     22                     23                     24
                      A                      A                      A
 Frequencies --   1455.8268              1459.7572              1479.8999
 Red. masses --      1.0881                 1.0997                 1.0955
 Frc consts  --      1.3588                 1.3807                 1.4137
 IR Inten    --      6.1386                 7.5768                 1.1598

                     25                     26                     27
                      A                      A                      A
 Frequencies --   1484.2920              1490.5711              1501.1581
 Red. masses --      1.0988                 1.0396                 1.0575
 Frc consts  --      1.4263                 1.3609                 1.4041
 IR Inten    --      8.0889                 7.2678                 5.2924

                     28                     29                     30
                      A                      A                      A
 Frequencies --   1518.3351              3022.1282              3034.2432
 Red. masses --      1.0521                 1.0485                 1.0317
 Frc consts  --      1.4290                 5.6424                 5.5962
 IR Inten    --      8.7654                15.5982                36.4192

                     31                     32                     33
                      A                      A                      A
 Frequencies --   3095.5724              3106.2305              3111.7326
 Red. masses --      1.0776                 1.0590                 1.1020
 Frc consts  --      6.0842                 6.0200                 6.2871
 IR Inten    --      1.5780                20.7782                42.5210

                     34                     35                     36
                      A                      A                      A
 Frequencies --   3132.1245              3145.1737              3187.5087
 Red. masses --      1.1020                 1.1050                 1.1118
 Frc consts  --      6.3698                 6.4404                 6.6554
 IR Inten    --      9.6430                15.5104                17.7401

 - Thermochemistry -
 -------------------
 Temperature   298.150 Kelvin.  Pressure   1.00000 Atm.
 Atom     1 has atomic number  6 and mass  12.00000

 Molecular mass:    77.06025 amu.
 Principal axes and moments of inertia in atomic units:
                           1         2         3
     Eigenvalues --   233.33394 754.51100 827.42484
           X            0.99969  -0.01238   0.02154
           Y            0.01167   0.99940   0.03252
           Z           -0.02193  -0.03226   0.99924
 This molecule is an asymmetric top.
 Rotational symmetry number  1.
 Rotational temperatures (Kelvin)      0.37120     0.11479     0.10468
 Rotational constants (GHZ):           7.73459     2.39193     2.18115
    1 imaginary frequencies ignored.
 Zero-point vibrational energy     297155.7 (Joules/Mol)
                                   71.02191 (Kcal/Mol)
 Warning -- explicit consideration of   9 degrees of freedom as
           vibrations may cause significant error
 Vibrational temperatures:     27.64   123.79   169.23   212.29   294.26
          (Kelvin)            433.35   648.34   740.37   794.88  1194.04
                             1262.26  1323.68  1507.83  1516.81  1578.73
                             1694.17  1715.60  1752.26  1777.64  2031.81
                             2094.61  2100.27  2129.25  2135.57  2144.60
                             2159.83  2184.55  4348.17  4365.60  4453.84
                             4469.17  4477.09  4506.43  4525.20  4586.11

 Zero-point correction=                           0.113181 (Hartree/Particle)
 Thermal correction to Energy=                    0.121037
 Thermal correction to Enthalpy=                  0.121981
 Thermal correction to Gibbs Free Energy=         0.079452
 Sum of electronic and zero-point Energies=           -269.780124
 Sum of electronic and thermal Energies=              -269.772268
 Sum of electronic and thermal Enthalpies=            -269.771324
 Sum of electronic and thermal Free Energies=         -269.813853

                     E (Thermal)             CV                S
                      KCal/Mol        Cal/Mol-Kelvin    Cal/Mol-Kelvin
 Total                   75.952             24.966             89.510
 Electronic               0.000              0.000              1.377
 Translational            0.889              2.981             38.941
 Rotational               0.889              2.981             26.479
 Vibrational             74.174             19.004             22.712
 Vibration     1          0.593              1.986              6.714
 Vibration     2          0.601              1.959              3.748
 Vibration     3          0.608              1.935              3.139
 Vibration     4          0.617              1.905              2.704
 Vibration     5          0.640              1.833              2.092
 Vibration     6          0.693              1.671              1.410
 Vibration     7          0.809              1.360              0.794
 Vibration     8          0.870              1.218              0.623
 Vibration     9          0.908              1.134              0.539

 Optimization completed.
    -- Stationary point found.
 Normal termination of Gaussian 16 at Wed Jun  5 17:29:13 2019.
