 Gaussian 16, Revision B.01,
 Gaussian 16:  ES64L-G16RevB.01 20-Dec-2017

 ----------------------------------------------------------------------
 # opt=(calcfc,ts,noeigentest,maxcyc=500) freq=noraman uB2PLYPD3/cc-pvt
 z
 ----------------------------------------------------------------------

 -------------------
 Title Card Required
 -------------------
 Symbolic Z-matrix:
 Charge =  0 Multiplicity = 2

 SCF Done:  E(UB2PLYPD3) =  -308.795038409     A.U. after   19 cycles
 E2(B2PLYPD3) =    -0.3925789587D+00 E(B2PLYPD3) =    -0.30918761736800D+03
 E2(B2PLYPD3) =    -0.3925789587D+00 E(B2PLYPD3) =    -0.30918761736800D+03
 SCF Done:  E(UB2PLYPD3) =  -308.795164292     A.U. after   15 cycles
 E2(B2PLYPD3) =    -0.3930488126D+00 E(B2PLYPD3) =    -0.30918821310507D+03
 SCF Done:  E(UB2PLYPD3) =  -308.795157219     A.U. after   12 cycles
 E2(B2PLYPD3) =    -0.3930673713D+00 E(B2PLYPD3) =    -0.30918822459010D+03
 SCF Done:  E(UB2PLYPD3) =  -308.795169257     A.U. after   10 cycles
 E2(B2PLYPD3) =    -0.3930559956D+00 E(B2PLYPD3) =    -0.30918822525223D+03
 Optimization completed.
    -- Stationary point found.
 Normal termination of Gaussian 16 at Fri Jun  7 18:04:30 2019.

 ----------------------------------------------------------------------
 #N Geom=AllCheck Guess=TCheck SCRF=Check GenChk UB2PLYPD3(FC)/CC-pVTZ
 Freq
 ----------------------------------------------------------------------

 Structure from the checkpoint file:  "/localscratch/341085/Gau-40849.chk"
 -------------------
 Title Card Required
 -------------------
 Charge =  0 Multiplicity = 2

                         Standard orientation:
 ---------------------------------------------------------------------
 Center     Atomic      Atomic             Coordinates (Angstroms)
 Number     Number       Type             X           Y           Z
 ---------------------------------------------------------------------
      1          6           0        1.943134   -1.074147    0.453364
      2          1           0        1.366854   -1.139844    1.376049
      3          1           0        1.894893   -2.038631   -0.048802
      4          6           0        1.440208    0.038488   -0.425272
      5          1           0        1.896148    0.059052   -1.413528
      6          6           0       -2.091511   -0.177178    0.881067
      7          1           0       -1.224764   -0.372431    1.514455
      8          1           0       -2.736745    0.560004    1.354735
      9          1           0       -2.638547   -1.102912    0.710655
     10          8           0       -1.698510    0.406086   -0.352518
     11          8           0       -0.934319   -0.546228   -1.054238
     12          1           0        0.191008   -0.292374   -0.769233
     13          1           0        2.987040   -0.899455    0.733422
     14          6           0        1.295744    1.395883    0.203816
     15          1           0        0.801357    2.098100   -0.464019
     16          1           0        0.720359    1.344911    1.127974
     17          1           0        2.279580    1.806443    0.454493
 ---------------------------------------------------------------------

 SCF Done:  E(UB2PLYPD3) =  -308.795169257     A.U. after    1 cycles
 E2(B2PLYPD3) =    -0.3930559842D+00 E(B2PLYPD3) =    -0.30918822524078D+03
 E2(B2PLYPD3) =    -0.3930559842D+00 E(B2PLYPD3) =    -0.30918822524078D+03

 The electronic state is 2-A.
 Alpha  occ. eigenvalues --  -19.78328 -19.78022 -10.65904 -10.64039 -10.61466
 Alpha  occ. eigenvalues --  -10.61126  -1.26970  -1.01609  -0.91994  -0.80480
 Alpha  occ. eigenvalues --   -0.77472  -0.69314  -0.60529  -0.55636  -0.54290
 Alpha  occ. eigenvalues --   -0.53311  -0.51836  -0.48614  -0.47943  -0.46240
 Alpha  occ. eigenvalues --   -0.43908  -0.42281  -0.41832  -0.36459  -0.36080
 Alpha  occ. eigenvalues --   -0.28941
 Alpha virt. eigenvalues --    0.07165   0.09605   0.10801   0.11976   0.13975
 Alpha virt. eigenvalues --    0.14110   0.14643   0.15724   0.17235   0.17875
 Alpha virt. eigenvalues --    0.19051   0.21118   0.22374   0.26557   0.27796

  Beta  occ. eigenvalues --  -19.78177 -19.76331 -10.65914 -10.62827 -10.61519
  Beta  occ. eigenvalues --  -10.61179  -1.25049  -0.98572  -0.90102  -0.80287
  Beta  occ. eigenvalues --   -0.77055  -0.66804  -0.57279  -0.54639  -0.53905
  Beta  occ. eigenvalues --   -0.52703  -0.50179  -0.48007  -0.45732  -0.44393
  Beta  occ. eigenvalues --   -0.42875  -0.41941  -0.41404  -0.34951  -0.32877
  Beta virt. eigenvalues --   -0.03799   0.07249   0.09727   0.10961   0.12171
  Beta virt. eigenvalues --    0.14219   0.14550   0.14967   0.15803   0.17280
  Beta virt. eigenvalues --    0.18009   0.19586   0.21482   0.22724   0.26738

 Mulliken charges and spin densities:
               1          2
     1  C   -0.290336  -0.027170
     2  H    0.097994   0.005060
     3  H    0.113398   0.003610
     4  C   -0.160183   0.578748
     5  H    0.120850  -0.006995
     6  C   -0.061556  -0.004387
     7  H    0.063332   0.002290
     8  H    0.097973  -0.001075
     9  H    0.093759   0.001678
    10  O   -0.190719   0.025880
    11  O   -0.228888   0.434571
    12  H    0.213654  -0.069539
    13  H    0.100345   0.035440
    14  C   -0.291920  -0.028874
    15  H    0.122473   0.004421
    16  H    0.097217   0.005422
    17  H    0.102606   0.040922
 Sum of Mulliken charges =  -0.00000   1.00000

 Dipole moment (field-independent basis, Debye):
    X=              1.5317    Y=             -0.0476    Z=              2.0434  Tot=              2.5542
 Quadrupole moment (field-independent basis, Debye-Ang):
   XX=            -36.7806   YY=            -39.7482   ZZ=            -39.9536
   XY=              0.5122   XZ=             -4.6351   YZ=             -0.3888

  Exact polarizability:  97.997   1.572  61.015  -0.632   1.482  58.125
 Approx polarizability:  85.967  -0.230  66.190   0.758   3.365  67.217

 ******    1 imaginary frequencies (negative Signs) ******

                      1                      2                      3
                      A                      A                      A
 Frequencies --  -1886.0896                27.7364                90.2810
 Red. masses --      1.1092                 2.9650                 2.8220
 Frc consts  --      2.3248                 0.0013                 0.0136
 IR Inten    --   1904.2389                 2.2188                 1.9375

                      4                      5                      6
                      A                      A                      A
 Frequencies --    106.1624               149.3043               182.2662
 Red. masses --      2.5489                 1.7021                 1.1282
 Frc consts  --      0.0169                 0.0224                 0.0221
 IR Inten    --      1.0236                 2.0948                 0.4313

                      7                      8                      9
                      A                      A                      A
 Frequencies --    193.5232               222.1692               322.7431
 Red. masses --      1.1987                 1.4083                 2.8726
 Frc consts  --      0.0265                 0.0410                 0.1763
 IR Inten    --      0.3251                 3.2447                 0.6396

                     10                     11                     12
                      A                      A                      A
 Frequencies --    373.3528               462.2067               533.8982
 Red. masses --      2.0915                 3.5798                 3.6098
 Frc consts  --      0.1718                 0.4506                 0.6063
 IR Inten    --      0.1860                 4.0434                 2.1377

                     13                     14                     15
                      A                      A                      A
 Frequencies --    807.0770               896.1749               918.5673
 Red. masses --      1.1199                 2.4931                 3.9114
 Frc consts  --      0.4298                 1.1797                 1.9445
 IR Inten    --     14.6674                 0.5665                12.6811

                     16                     17                     18
                      A                      A                      A
 Frequencies --    933.8774               945.8989              1055.5142
 Red. masses --      1.1875                 1.2531                 7.5739
 Frc consts  --      0.6102                 0.6606                 4.9716
 IR Inten    --      1.6369                 0.1424                36.6642

                     19                     20                     21
                      A                      A                      A
 Frequencies --   1103.5518              1145.9571              1177.3646
 Red. masses --      1.4316                 1.7462                 1.2783
 Frc consts  --      1.0272                 1.3510                 1.0440
 IR Inten    --     15.5371                 5.7730                 4.3316

                     22                     23                     24
                      A                      A                      A
 Frequencies --   1198.8266              1210.2057              1220.1305
 Red. masses --      1.8358                 1.4930                 1.5574
 Frc consts  --      1.5545                 1.2883                 1.3660
 IR Inten    --      1.7366                13.6800                 5.7996

                     25                     26                     27
                      A                      A                      A
 Frequencies --   1369.4483              1410.3600              1421.2859
 Red. masses --      1.3465                 1.2904                 1.2223
 Frc consts  --      1.4878                 1.5123                 1.4548
 IR Inten    --      2.4727                10.6657                 6.2165

                     28                     29                     30
                      A                      A                      A
 Frequencies --   1457.1920              1463.6934              1481.8080
 Red. masses --      1.1386                 1.0863                 1.0509
 Frc consts  --      1.4244                 1.3712                 1.3596
 IR Inten    --      2.7112                 3.7801                 6.5186

                     31                     32                     33
                      A                      A                      A
 Frequencies --   1488.9578              1491.1366              1501.9775
 Red. masses --      1.0486                 1.0598                 1.0449
 Frc consts  --      1.3696                 1.3884                 1.3889
 IR Inten    --      0.4138                 1.6926                11.9116

                     34                     35                     36
                      A                      A                      A
 Frequencies --   1507.5061              1518.8758              3015.1798
 Red. masses --      1.0540                 1.0513                 1.0480
 Frc consts  --      1.4113                 1.4289                 5.6134
 IR Inten    --      7.7323                 6.7310                11.4631

                     37                     38                     39
                      A                      A                      A
 Frequencies --   3019.4547              3036.2684              3087.0577
 Red. masses --      1.0471                 1.0307                 1.0857
 Frc consts  --      5.6245                 5.5984                 6.0963
 IR Inten    --     34.6520                35.4031                15.0242

                     40                     41                     42
                      A                      A                      A
 Frequencies --   3089.2113              3103.2815              3112.1776
 Red. masses --      1.0855                 1.0856                 1.1035
 Frc consts  --      6.1037                 6.1600                 6.2970
 IR Inten    --      4.1937                18.1626                39.8975

                     43                     44                     45
                      A                      A                      A
 Frequencies --   3128.4540              3135.6457              3143.8202
 Red. masses --      1.1008                 1.1000                 1.1048
 Frc consts  --      6.3475                 6.3725                 6.4337
 IR Inten    --     20.6038                30.5192                15.3333

 - Thermochemistry -
 -------------------
 Temperature   298.150 Kelvin.  Pressure   1.00000 Atm.
 Atom     1 has atomic number  6 and mass  12.00000

 Molecular mass:    91.07590 amu.
 Principal axes and moments of inertia in atomic units:
                           1         2         3
     Eigenvalues --   385.644851030.619541093.12526
           X            0.99974   0.00129  -0.02281
           Y           -0.00287   0.99759  -0.06937
           Z            0.02266   0.06941   0.99733
 This molecule is an asymmetric top.
 Rotational symmetry number  1.
 Rotational temperatures (Kelvin)      0.22460     0.08404     0.07924
 Rotational constants (GHZ):           4.67980     1.75112     1.65099
    1 imaginary frequencies ignored.
 Zero-point vibrational energy     372395.0 (Joules/Mol)
                                   89.00454 (Kcal/Mol)
 Warning -- explicit consideration of  11 degrees of freedom as
           vibrations may cause significant error
 Vibrational temperatures:     39.91   129.89   152.74   214.82   262.24
          (Kelvin)            278.44   319.65   464.36   537.17   665.01
                              768.16  1161.20  1289.40  1321.61  1343.64
                             1360.94  1518.65  1587.76  1648.78  1693.97
                             1724.84  1741.22  1755.50  1970.33  2029.19
                             2044.91  2096.57  2105.93  2131.99  2142.28
                             2145.41  2161.01  2168.97  2185.32  4338.17
                             4344.32  4368.51  4441.59  4444.69  4464.93
                             4477.73  4501.15  4511.49  4523.26

 Zero-point correction=                           0.141838 (Hartree/Particle)
 Thermal correction to Energy=                    0.151023
 Thermal correction to Enthalpy=                  0.151967
 Thermal correction to Gibbs Free Energy=         0.106640
 Sum of electronic and zero-point Energies=           -309.046387
 Sum of electronic and thermal Energies=              -309.037203
 Sum of electronic and thermal Enthalpies=            -309.036258
 Sum of electronic and thermal Free Energies=         -309.081585

                     E (Thermal)             CV                S
                      KCal/Mol        Cal/Mol-Kelvin    Cal/Mol-Kelvin
 Total                   94.768             30.051             95.398
 Electronic               0.000              0.000              1.377
 Translational            0.889              2.981             39.439
 Rotational               0.889              2.981             27.565
 Vibrational             92.991             24.089             27.016
 Vibration     1          0.593              1.984              5.985
 Vibration     2          0.602              1.956              3.654
 Vibration     3          0.605              1.944              3.338
 Vibration     4          0.618              1.903              2.681
 Vibration     5          0.630              1.864              2.305
 Vibration     6          0.635              1.849              2.194
 Vibration     7          0.648              1.807              1.941
 Vibration     8          0.708              1.630              1.296
 Vibration     9          0.745              1.527              1.066
 Vibration    10          0.820              1.334              0.760
 Vibration    11          0.889              1.175              0.579

                           ! Non-Optimized Parameters !

 1\1\GINC-N58\Freq\UB2PLYPD3-FC\CC-pVTZ\C4H11O2(2)\ROOT\07-Jun-2019\0\\
 #N Geom=AllCheck Guess=TCheck SCRF=Check GenChk UB2PLYPD3(FC)/CC-pVTZ
 Freq\\Title Card Required\\0,2\C,1.9656852378,-1.0443285718,0.43175690
 05\H,1.4012754335,-1.1247808205,1.3605908561\H,1.9297281367,-2.0073668
 677,-0.0741998982\C,1.4321204633,0.0624932088,-0.4360824209\H,1.876313
 8036,0.095853178,-1.4293264023\C,-2.0798567423,-0.2248348358,0.9091057
 168\H,-1.2024627432,-0.40657921,1.5317632713\H,-2.7332935207,0.4980950
 359,1.3933753254\H,-2.6114350625,-1.1598932553,0.7406925333\O,-1.71187

 Normal termination of Gaussian 16 at Fri Jun  7 19:22:40 2019.
