 Gaussian 16, Revision B.01,
 Gaussian 16:  ES64L-G16RevB.01 20-Dec-2017

 ----------------------------------------------------------------------
 # opt=(calcfc,ts,noeigentest,maxcyc=500) freq=noraman uB2PLYPD3/cc-pvt
 z
 ----------------------------------------------------------------------

 -------------------
 Title Card Required
 -------------------
 Symbolic Z-matrix:
 Charge =  0 Multiplicity = 2

 SCF Done:  E(UB2PLYPD3) =  -308.791273733     A.U. after   19 cycles
 E2(B2PLYPD3) =    -0.3921816522D+00 E(B2PLYPD3) =    -0.30918345538562D+03
 E2(B2PLYPD3) =    -0.3921816522D+00 E(B2PLYPD3) =    -0.30918345538562D+03
 SCF Done:  E(UB2PLYPD3) =  -308.791306905     A.U. after   14 cycles
 E2(B2PLYPD3) =    -0.3921659045D+00 E(B2PLYPD3) =    -0.30918347280953D+03
 SCF Done:  E(UB2PLYPD3) =  -308.791305664     A.U. after   12 cycles
 E2(B2PLYPD3) =    -0.3921673219D+00 E(B2PLYPD3) =    -0.30918347298554D+03
 SCF Done:  E(UB2PLYPD3) =  -308.791306430     A.U. after   10 cycles
 E2(B2PLYPD3) =    -0.3921665462D+00 E(B2PLYPD3) =    -0.30918347297617D+03
 Optimization completed.
    -- Stationary point found.

 1\1\GINC-N144\FTS\UB2PLYPD3-FC\CC-pVTZ\C4H11O2(2)\ROOT\24-Jun-2019\0\\
 # opt=(calcfc,ts,noeigentest,maxcyc=500) freq=noraman uB2PLYPD3/cc-pvt
 z\\Title Card Required\\0,2\C,2.2850212816,-0.4254522221,0.1545579429\
 H,2.8844852632,-1.3125332389,0.3936240747\H,2.9209638361,0.2034896568,
 -0.4705635622\C,1.08296859,-0.8622034495,-0.633081182\H,1.2750997217,-
 1.326769676,-1.595543332\H,0.3033913194,-1.3648925656,-0.0655995433\C,
 -2.2046714295,1.0199899869,-0.5880608329\H,-2.1535517327,-0.067109355,
 -0.6686097925\H,-2.8809696376,1.3000304389,0.2170134058\H,-2.544768148

 Normal termination of Gaussian 16 at Mon Jun 24 19:50:39 2019.

 ----------------------------------------------------------------------
 #N Geom=AllCheck Guess=TCheck SCRF=Check GenChk UB2PLYPD3(FC)/CC-pVTZ
 Freq
 ----------------------------------------------------------------------

 Structure from the checkpoint file:  "/localscratch/353444/Gau-88212.chk"
 -------------------
 Title Card Required
 -------------------
 Charge =  0 Multiplicity = 2

                         Standard orientation:
 ---------------------------------------------------------------------
 Center     Atomic      Atomic             Coordinates (Angstroms)
 Number     Number       Type             X           Y           Z
 ---------------------------------------------------------------------
      1          6           0       -2.159248   -0.309489    0.083169
      2          1           0       -3.082672   -0.621783   -0.420004
      3          1           0       -2.309244   -0.527376    1.141845
      4          6           0       -1.025707   -1.142074   -0.444037
      5          1           0       -1.083672   -2.211425   -0.264603
      6          1           0       -0.685831   -0.896409   -1.447334
      7          6           0        2.554048    0.092314   -0.566075
      8          1           0        2.135828   -0.566918   -1.328565
      9          1           0        3.018712    0.955746   -1.037795
     10          1           0        3.285165   -0.450801    0.030383
     11          8           0        1.529047    0.624802    0.259480
     12          8           0        0.948117   -0.445903    0.969013
     13          1           0        0.055337   -0.790811    0.298440
     14          6           0       -1.947953    1.188282   -0.119326
     15          1           0       -1.836637    1.423753   -1.178025
     16          1           0       -2.793289    1.757759    0.263137
     17          1           0       -1.047852    1.522882    0.392185
 ---------------------------------------------------------------------

 SCF Done:  E(UB2PLYPD3) =  -308.791306430     A.U. after    1 cycles
 E2(B2PLYPD3) =    -0.3921665440D+00 E(B2PLYPD3) =    -0.30918347297400D+03
 E2(B2PLYPD3) =    -0.3921665440D+00 E(B2PLYPD3) =    -0.30918347297400D+03

 The electronic state is 2-A.
 Alpha  occ. eigenvalues --  -19.78455 -19.78333 -10.65953 -10.63643 -10.61952
 Alpha  occ. eigenvalues --  -10.59858  -1.27174  -1.01953  -0.91320  -0.80003
 Alpha  occ. eigenvalues --   -0.77287  -0.69053  -0.60568  -0.55685  -0.54529
 Alpha  occ. eigenvalues --   -0.53462  -0.52222  -0.49212  -0.47873  -0.43948
 Alpha  occ. eigenvalues --   -0.42675  -0.41740  -0.40838  -0.36617  -0.36338
 Alpha  occ. eigenvalues --   -0.29927
 Alpha virt. eigenvalues --    0.07743   0.09171   0.11161   0.12158   0.13353
 Alpha virt. eigenvalues --    0.13839   0.15248   0.15475   0.16115   0.18696
 Alpha virt. eigenvalues --    0.18937   0.21745   0.22578   0.26627   0.28917

  Beta  occ. eigenvalues --  -19.78326 -19.76705 -10.65962 -10.62393 -10.62005
  Beta  occ. eigenvalues --  -10.59844  -1.25313  -0.99036  -0.90081  -0.78321
  Beta  occ. eigenvalues --   -0.76638  -0.67671  -0.57409  -0.54419  -0.54175
  Beta  occ. eigenvalues --   -0.52828  -0.51379  -0.47581  -0.45698  -0.43125
  Beta  occ. eigenvalues --   -0.41677  -0.41306  -0.40537  -0.35300  -0.33246
  Beta virt. eigenvalues --   -0.04377   0.07922   0.09243   0.11389   0.12382
  Beta virt. eigenvalues --    0.13926   0.14025   0.15286   0.15649   0.16163
  Beta virt. eigenvalues --    0.18774   0.19310   0.22087   0.23135   0.26859

 Mulliken charges and spin densities:
               1          2
     1  C   -0.148043  -0.031610
     2  H    0.099134   0.038316
     3  H    0.101826   0.006507
     4  C   -0.285337   0.645537
     5  H    0.124082  -0.012659
     6  H    0.108743  -0.012587
     7  C   -0.045537  -0.003211
     8  H    0.064614   0.000788
     9  H    0.093778  -0.000970
    10  H    0.085899   0.002301
    11  O   -0.190831   0.023167
    12  O   -0.229264   0.416727
    13  H    0.214629  -0.077290
    14  C   -0.299443   0.005382
    15  H    0.084546  -0.000295
    16  H    0.100343  -0.000809
    17  H    0.120860   0.000707
 Sum of Mulliken charges =  -0.00000   1.00000

 Dipole moment (field-independent basis, Debye):
    X=             -0.5029    Y=             -0.8872    Z=             -1.9908  Tot=              2.2368
 Quadrupole moment (field-independent basis, Debye-Ang):
   XX=            -34.3690   YY=            -39.5776   ZZ=            -40.2331
   XY=              0.6350   XZ=             -3.1464   YZ=              0.0860

  Exact polarizability:  96.927   8.845  62.662   3.234   0.826  57.368
 Approx polarizability:  80.154   8.019  68.477   3.407  -0.248  68.216

 ******    1 imaginary frequencies (negative Signs) ******

                      1                      2                      3
                      A                      A                      A
 Frequencies --  -1920.6533                19.7257                73.1203
 Red. masses --      1.1055                 3.2192                 2.2789
 Frc consts  --      2.4027                 0.0007                 0.0072
 IR Inten    --   1908.7259                 2.0988                 0.5152

                      4                      5                      6
                      A                      A                      A
 Frequencies --     86.3285               132.0421               157.3811
 Red. masses --      2.9153                 2.1579                 1.7715
 Frc consts  --      0.0128                 0.0222                 0.0259
 IR Inten    --      3.9540                 1.5866                 0.3491

                      7                      8                      9
                      A                      A                      A
 Frequencies --    247.7829               258.3470               367.2722
 Red. masses --      1.4206                 1.2841                 1.8501
 Frc consts  --      0.0514                 0.0505                 0.1470
 IR Inten    --      1.5078                 0.6447                 0.3887

                     10                     11                     12
                      A                      A                      A
 Frequencies --    463.7636               530.7228               618.1073
 Red. masses --      3.4572                 2.5073                 1.6515
 Frc consts  --      0.4381                 0.4161                 0.3718
 IR Inten    --      5.6470                 0.4461                 0.8836

                     13                     14                     15
                      A                      A                      A
 Frequencies --    756.1883               886.1645               910.3438
 Red. masses --      1.1136                 2.3087                 2.8987
 Frc consts  --      0.3752                 1.0682                 1.4154
 IR Inten    --      8.1404                 4.5071                15.3267

                     16                     17                     18
                      A                      A                      A
 Frequencies --    922.1763               944.1673              1053.2950
 Red. masses --      1.3492                 1.1865                 5.9233
 Frc consts  --      0.6760                 0.6232                 3.8718
 IR Inten    --      0.2066                 2.7641                56.8403

                     19                     20                     21
                      A                      A                      A
 Frequencies --   1070.5527              1113.9107              1177.7897
 Red. masses --      1.7015                 1.5455                 1.2724
 Frc consts  --      1.1489                 1.1299                 1.0400
 IR Inten    --      4.6466                 7.6627                 1.8514

                     22                     23                     24
                      A                      A                      A
 Frequencies --   1196.7911              1204.2030              1218.7010
 Red. masses --      1.5517                 1.6820                 1.5644
 Frc consts  --      1.3094                 1.4371                 1.3690
 IR Inten    --      0.2000                 2.0903                 4.7093

                     25                     26                     27
                      A                      A                      A
 Frequencies --   1299.2565              1376.3529              1426.2183
 Red. masses --      1.1787                 1.4371                 1.2370
 Frc consts  --      1.1724                 1.6039                 1.4824
 IR Inten    --      5.2162                 6.0102                 3.5799

                     28                     29                     30
                      A                      A                      A
 Frequencies --   1450.0482              1459.4848              1468.4070
 Red. masses --      1.0669                 1.1355                 1.1452
 Frc consts  --      1.3217                 1.4250                 1.4549
 IR Inten    --      3.7850                 5.2964                 3.0841

                     31                     32                     33
                      A                      A                      A
 Frequencies --   1481.4645              1483.4729              1514.4842
 Red. masses --      1.0512                 1.0752                 1.0424
 Frc consts  --      1.3593                 1.3942                 1.4087
 IR Inten    --      6.9424                 2.6706                 6.6467

                     34                     35                     36
                      A                      A                      A
 Frequencies --   1518.8716              1520.4699              2995.7319
 Red. masses --      1.0513                 1.0527                 1.0706
 Frc consts  --      1.4290                 1.4339                 5.6610
 IR Inten    --     12.3165                 5.6800                20.4521

                     37                     38                     39
                      A                      A                      A
 Frequencies --   3035.3609              3053.4271              3068.9545
 Red. masses --      1.0310                 1.0380                 1.0855
 Frc consts  --      5.5965                 5.7020                 6.0236
 IR Inten    --     42.0237                20.1186                13.4784

                     40                     41                     42
                      A                      A                      A
 Frequencies --   3091.7976              3112.2241              3120.3900
 Red. masses --      1.0544                 1.1033                 1.1004
 Frc consts  --      5.9385                 6.2963                 6.3128
 IR Inten    --     16.6004                40.9846                38.7965

                     43                     44                     45
                      A                      A                      A
 Frequencies --   3138.9972              3144.8452              3176.6727
 Red. masses --      1.1022                 1.1048                 1.1110
 Frc consts  --      6.3988                 6.4376                 6.6056
 IR Inten    --     14.1508                15.6147                16.8506

 - Thermochemistry -
 -------------------
 Temperature   298.150 Kelvin.  Pressure   1.00000 Atm.
 Atom     1 has atomic number  6 and mass  12.00000

 Molecular mass:    91.07590 amu.
 Principal axes and moments of inertia in atomic units:
                           1         2         3
     Eigenvalues --   320.736281172.372601274.65650
           X            0.99978  -0.01132  -0.01773
           Y            0.01163   0.99978   0.01729
           Z            0.01753  -0.01749   0.99969
 This molecule is an asymmetric top.
 Rotational symmetry number  1.
 Rotational temperatures (Kelvin)      0.27005     0.07388     0.06795
 Rotational constants (GHZ):           5.62687     1.53939     1.41586
    1 imaginary frequencies ignored.
 Zero-point vibrational energy     372910.8 (Joules/Mol)
                                   89.12781 (Kcal/Mol)
 Warning -- explicit consideration of  11 degrees of freedom as
           vibrations may cause significant error
 Vibrational temperatures:     28.38   105.20   124.21   189.98   226.44
          (Kelvin)            356.50   371.70   528.42   667.25   763.59
                              889.32  1087.99  1274.99  1309.78  1326.81
                             1358.45  1515.46  1540.29  1602.67  1694.58
                             1721.92  1732.58  1753.44  1869.34  1980.26
                             2052.01  2086.30  2099.87  2112.71  2131.50
                             2134.39  2179.01  2185.32  2187.62  4310.19
                             4367.21  4393.20  4415.54  4448.41  4477.80
                             4489.55  4516.32  4524.73  4570.52

 Zero-point correction=                           0.142034 (Hartree/Particle)
 Thermal correction to Energy=                    0.151046
 Thermal correction to Enthalpy=                  0.151990
 Thermal correction to Gibbs Free Energy=         0.106365
 Sum of electronic and zero-point Energies=           -309.041439
 Sum of electronic and thermal Energies=              -309.032427
 Sum of electronic and thermal Enthalpies=            -309.031483
 Sum of electronic and thermal Free Energies=         -309.077108

                     E (Thermal)             CV                S
                      KCal/Mol        Cal/Mol-Kelvin    Cal/Mol-Kelvin
 Total                   94.783             29.602             96.025
 Electronic               0.000              0.000              1.377
 Translational            0.889              2.981             39.439
 Rotational               0.889              2.981             27.663
 Vibrational             93.005             23.641             27.545
 Vibration     1          0.593              1.986              6.662
 Vibration     2          0.599              1.967              4.068
 Vibration     3          0.601              1.959              3.742
 Vibration     4          0.612              1.921              2.916
 Vibration     5          0.621              1.894              2.581
 Vibration     6          0.661              1.766              1.746
 Vibration     7          0.667              1.749              1.673
 Vibration     8          0.740              1.540              1.091
 Vibration     9          0.821              1.330              0.755
 Vibration    10          0.886              1.182              0.586
 Vibration    11          0.978              0.994              0.420

 Optimization completed.
    -- Stationary point found.
 Normal termination of Gaussian 16 at Mon Jun 24 21:09:22 2019.
