 Gaussian 16, Revision B.01,
 Gaussian 16:  ES64L-G16RevB.01 20-Dec-2017

 ----------------------------------------------------------------------
 # opt=(calcfc,ts,noeigentest,maxcyc=500,modredundant) uB2PLYPD3/cc-pvt
 z scf=maxcyc=500 nosymm
 ----------------------------------------------------------------------

 -------------------
 Title Card Required
 -------------------
 Symbolic Z-matrix:
 Charge =  0 Multiplicity = 2

 SCF Done:  E(UB2PLYPD3) =  -268.326337696     A.U. after   23 cycles
 E2(B2PLYPD3) =    -0.3255007814D+00 E(B2PLYPD3) =    -0.26865183847754D+03
 E2(B2PLYPD3) =    -0.3255007814D+00 E(B2PLYPD3) =    -0.26865183847754D+03

  Exact polarizability:  77.756   2.410  51.788  -2.490   5.687  38.843
 Approx polarizability:  62.714   1.810  62.633  -3.880   8.870  46.755

 Optimization completed.
    -- Stationary point found.
 SCF Done:  E(UB2PLYPD3) =  -268.326019877     A.U. after   17 cycles
 E2(B2PLYPD3) =    -0.3256179685D+00 E(B2PLYPD3) =    -0.26865163784575D+03
 SCF Done:  E(UB2PLYPD3) =  -268.326242773     A.U. after   13 cycles
 E2(B2PLYPD3) =    -0.3254679882D+00 E(B2PLYPD3) =    -0.26865171076079D+03
 SCF Done:  E(UB2PLYPD3) =  -268.326206387     A.U. after   11 cycles
 E2(B2PLYPD3) =    -0.3255078874D+00 E(B2PLYPD3) =    -0.26865171427459D+03
 SCF Done:  E(UB2PLYPD3) =  -268.326204108     A.U. after    9 cycles
 E2(B2PLYPD3) =    -0.3255102671D+00 E(B2PLYPD3) =    -0.26865171437553D+03
 Optimization completed.
 SCF Done:  E(UB2PLYPD3) =  -268.325690164     A.U. after   15 cycles
 E2(B2PLYPD3) =    -0.3255754006D+00 E(B2PLYPD3) =    -0.26865126556431D+03
 SCF Done:  E(UB2PLYPD3) =  -268.325926764     A.U. after   14 cycles
 E2(B2PLYPD3) =    -0.3254238498D+00 E(B2PLYPD3) =    -0.26865135061380D+03
 SCF Done:  E(UB2PLYPD3) =  -268.325891178     A.U. after   12 cycles
 E2(B2PLYPD3) =    -0.3254638742D+00 E(B2PLYPD3) =    -0.26865135505232D+03
 SCF Done:  E(UB2PLYPD3) =  -268.325887814     A.U. after    9 cycles
 E2(B2PLYPD3) =    -0.3254673577D+00 E(B2PLYPD3) =    -0.26865135517140D+03
 SCF Done:  E(UB2PLYPD3) =  -268.325248454     A.U. after   16 cycles
 E2(B2PLYPD3) =    -0.3254745275D+00 E(B2PLYPD3) =    -0.26865072298169D+03
 E2(B2PLYPD3) =    -0.3253301910D+00 E(B2PLYPD3) =    -0.26865080632352D+03
 E2(B2PLYPD3) =    -0.3253630880D+00 E(B2PLYPD3) =    -0.26865081194269D+03
 E2(B2PLYPD3) =    -0.3253681692D+00 E(B2PLYPD3) =    -0.26865081208294D+03
 E2(B2PLYPD3) =    -0.3253273428D+00 E(B2PLYPD3) =    -0.26865009937520D+03
 E2(B2PLYPD3) =    -0.3252110357D+00 E(B2PLYPD3) =    -0.26865017436164D+03
 E2(B2PLYPD3) =    -0.3252168813D+00 E(B2PLYPD3) =    -0.26865017967224D+03
 E2(B2PLYPD3) =    -0.3252123071D+00 E(B2PLYPD3) =    -0.26865018039670D+03
 E2(B2PLYPD3) =    -0.3252069817D+00 E(B2PLYPD3) =    -0.26865018042397D+03
 E2(B2PLYPD3) =    -0.3251402873D+00 E(B2PLYPD3) =    -0.26864951645584D+03
 E2(B2PLYPD3) =    -0.3248573124D+00 E(B2PLYPD3) =    -0.26865048582264D+03
 E2(B2PLYPD3) =    -0.3249503888D+00 E(B2PLYPD3) =    -0.26865051483389D+03
 E2(B2PLYPD3) =    -0.3249471981D+00 E(B2PLYPD3) =    -0.26865051538422D+03
 E2(B2PLYPD3) =    -0.3250702847D+00 E(B2PLYPD3) =    -0.26865094787238D+03
 E2(B2PLYPD3) =    -0.3251633833D+00 E(B2PLYPD3) =    -0.26865097029068D+03
 E2(B2PLYPD3) =    -0.3251397225D+00 E(B2PLYPD3) =    -0.26865097094226D+03
 E2(B2PLYPD3) =    -0.3251422898D+00 E(B2PLYPD3) =    -0.26865097102164D+03
 E2(B2PLYPD3) =    -0.3252997787D+00 E(B2PLYPD3) =    -0.26865138769004D+03
 E2(B2PLYPD3) =    -0.3253141405D+00 E(B2PLYPD3) =    -0.26865140597257D+03
 E2(B2PLYPD3) =    -0.3253109923D+00 E(B2PLYPD3) =    -0.26865140669252D+03
 SCF Done:  E(UB2PLYPD3) =  -268.326097110     A.U. after    8 cycles
 E2(B2PLYPD3) =    -0.3253095854D+00 E(B2PLYPD3) =    -0.26865140669540D+03
 SCF Done:  E(UB2PLYPD3) =  -268.326209706     A.U. after   16 cycles
 E2(B2PLYPD3) =    -0.3254829510D+00 E(B2PLYPD3) =    -0.26865169265665D+03
 SCF Done:  E(UB2PLYPD3) =  -268.326341699     A.U. after   13 cycles
 E2(B2PLYPD3) =    -0.3253775329D+00 E(B2PLYPD3) =    -0.26865171923146D+03
 SCF Done:  E(UB2PLYPD3) =  -268.326279433     A.U. after   12 cycles
 E2(B2PLYPD3) =    -0.3254431105D+00 E(B2PLYPD3) =    -0.26865172254307D+03
 SCF Done:  E(UB2PLYPD3) =  -268.326292639     A.U. after   10 cycles
 E2(B2PLYPD3) =    -0.3254301836D+00 E(B2PLYPD3) =    -0.26865172282237D+03
 SCF Done:  E(UB2PLYPD3) =  -268.326292037     A.U. after    7 cycles
 E2(B2PLYPD3) =    -0.3254307599D+00 E(B2PLYPD3) =    -0.26865172279701D+03
    -- Stationary point found.
 SCF Done:  E(UB2PLYPD3) =  -268.326194942     A.U. after   16 cycles
 E2(B2PLYPD3) =    -0.3255906422D+00 E(B2PLYPD3) =    -0.26865178558420D+03
 SCF Done:  E(UB2PLYPD3) =  -268.326377378     A.U. after   13 cycles
 E2(B2PLYPD3) =    -0.3254584447D+00 E(B2PLYPD3) =    -0.26865183582232D+03
 SCF Done:  E(UB2PLYPD3) =  -268.326340409     A.U. after   11 cycles
 E2(B2PLYPD3) =    -0.3254981675D+00 E(B2PLYPD3) =    -0.26865183857640D+03
 SCF Done:  E(UB2PLYPD3) =  -268.326340778     A.U. after    9 cycles
 E2(B2PLYPD3) =    -0.3254979077D+00 E(B2PLYPD3) =    -0.26865183868574D+03
 Optimization completed.
    -- Stationary point found.

                          Input orientation:
 ---------------------------------------------------------------------
 Center     Atomic      Atomic             Coordinates (Angstroms)
 Number     Number       Type             X           Y           Z
 ---------------------------------------------------------------------
      1          6           0       -1.675415   -1.131836    0.204019
      2          6           0       -2.036385    0.117355    0.058845
      3          1           0       -2.977329    0.387905   -0.412931
      4          1           0       -2.132923   -2.073224   -0.060113
      5          1           0       -1.406715    0.926065    0.411529
      6          6           0        1.700619    0.225180   -0.106810
      7          1           0        1.070450   -0.049465   -0.953757
      8          1           0        2.017710    1.262094   -0.198490
      9          1           0        2.567901   -0.430705   -0.059113
     10          8           0        0.964609    0.168375    1.107652
     11          8           0        0.600824   -1.183307    1.318879
     12          1           0       -0.393700   -1.251705    0.857445
 ---------------------------------------------------------------------

 Alpha  occ. eigenvalues --  -19.78762 -19.78446 -10.66018 -10.65705 -10.63302
 Alpha  occ. eigenvalues --   -1.27425  -1.02719  -0.90555  -0.77834  -0.68904
 Alpha  occ. eigenvalues --   -0.62149  -0.56073  -0.54741  -0.54356  -0.51366
 Alpha  occ. eigenvalues --   -0.49045  -0.44053  -0.37775  -0.37270  -0.34738
 Alpha  occ. eigenvalues --   -0.31210
 Alpha virt. eigenvalues --    0.04591   0.08948   0.10167   0.11132   0.13368
 Alpha virt. eigenvalues --    0.14783   0.16328   0.16866   0.19669   0.25596
 Alpha virt. eigenvalues --    0.28193   0.29850   0.31691   0.34797   0.35354

  Beta  occ. eigenvalues --  -19.78645 -19.77149 -10.66024 -10.64090 -10.63552
  Beta  occ. eigenvalues --   -1.25864  -1.00373  -0.88442  -0.77507  -0.66021
  Beta  occ. eigenvalues --   -0.58920  -0.55144  -0.54243  -0.53195  -0.49757
  Beta  occ. eigenvalues --   -0.46161  -0.43429  -0.36279  -0.34336  -0.33871
  Beta virt. eigenvalues --   -0.05675   0.05513   0.09027   0.10514   0.11478
  Beta virt. eigenvalues --    0.13933   0.14892   0.16417   0.17070   0.20238
  Beta virt. eigenvalues --    0.26163   0.28581   0.30675   0.31782   0.35359

 Mulliken charges and spin densities:
               1          2
     1  C   -0.212599   0.786371
     2  C   -0.263848  -0.170614
     3  H    0.140356   0.060691
     4  H    0.162823   0.024960
     5  H    0.164151   0.028279
     6  C   -0.064845  -0.002395
     7  H    0.074604  -0.000137
     8  H    0.094854  -0.000598
     9  H    0.098637   0.001586
    10  O   -0.194190   0.020254
    11  O   -0.227401   0.327315
    12  H    0.227459  -0.075712
 Sum of Mulliken charges =  -0.00000   1.00000

 Dipole moment (field-independent basis, Debye):
    X=             -1.1118    Y=              0.4485    Z=             -2.4040  Tot=              2.6863
 Quadrupole moment (field-independent basis, Debye-Ang):
   XX=            -26.4817   YY=            -29.6764   ZZ=            -36.4224
   XY=              2.4098   XZ=             -1.3111   YZ=              1.0839

 Normal termination of Gaussian 16 at Thu Jun 13 10:21:05 2019.
