 Gaussian 16, Revision B.01,
 Gaussian 16:  ES64L-G16RevB.01 20-Dec-2017

 ----------------------------------------------------------------------
 # opt=(calcfc,ts,noeigentest,maxcyc=500) freq=noraman uB2PLYPD3/cc-pvt
 z
 ----------------------------------------------------------------------

 -------------------
 Title Card Required
 -------------------
 Symbolic Z-matrix:
 Charge =  0 Multiplicity = 2

 SCF Done:  E(UB2PLYPD3) =  -308.795472175     A.U. after   19 cycles
 E2(B2PLYPD3) =    -0.3928492096D+00 E(B2PLYPD3) =    -0.30918832138490D+03
 E2(B2PLYPD3) =    -0.3928492096D+00 E(B2PLYPD3) =    -0.30918832138490D+03
 SCF Done:  E(UB2PLYPD3) =  -308.795443982     A.U. after   16 cycles
 E2(B2PLYPD3) =    -0.3929306357D+00 E(B2PLYPD3) =    -0.30918837461782D+03
 SCF Done:  E(UB2PLYPD3) =  -308.795354573     A.U. after   16 cycles
 E2(B2PLYPD3) =    -0.3930358066D+00 E(B2PLYPD3) =    -0.30918839037997D+03
 SCF Done:  E(UB2PLYPD3) =  -308.795417997     A.U. after   13 cycles
 E2(B2PLYPD3) =    -0.3929808231D+00 E(B2PLYPD3) =    -0.30918839881976D+03
 SCF Done:  E(UB2PLYPD3) =  -308.794663797     A.U. after   18 cycles
 E2(B2PLYPD3) =    -0.3934299367D+00 E(B2PLYPD3) =    -0.30918809373419D+03
 SCF Done:  E(UB2PLYPD3) =  -308.794100248     A.U. after   18 cycles
 E2(B2PLYPD3) =    -0.3927676184D+00 E(B2PLYPD3) =    -0.30918686786647D+03
 SCF Done:  E(UB2PLYPD3) =  -308.794301264     A.U. after   19 cycles
 E2(B2PLYPD3) =    -0.3931462023D+00 E(B2PLYPD3) =    -0.30918744746671D+03
 SCF Done:  E(UB2PLYPD3) =  -308.794840411     A.U. after   15 cycles
 E2(B2PLYPD3) =    -0.3929190045D+00 E(B2PLYPD3) =    -0.30918775941516D+03
 SCF Done:  E(UB2PLYPD3) =  -308.795197072     A.U. after   15 cycles
 E2(B2PLYPD3) =    -0.3930247375D+00 E(B2PLYPD3) =    -0.30918822180971D+03
 SCF Done:  E(UB2PLYPD3) =  -308.795293018     A.U. after   18 cycles
 E2(B2PLYPD3) =    -0.3929689063D+00 E(B2PLYPD3) =    -0.30918826192451D+03
 SCF Done:  E(UB2PLYPD3) =  -308.795162376     A.U. after   15 cycles
 E2(B2PLYPD3) =    -0.3932092146D+00 E(B2PLYPD3) =    -0.30918837159081D+03
 SCF Done:  E(UB2PLYPD3) =  -308.795146346     A.U. after   18 cycles
 E2(B2PLYPD3) =    -0.3929625146D+00 E(B2PLYPD3) =    -0.30918810886090D+03
 SCF Done:  E(UB2PLYPD3) =  -308.795270671     A.U. after   16 cycles
 E2(B2PLYPD3) =    -0.3930966166D+00 E(B2PLYPD3) =    -0.30918836728732D+03
 SCF Done:  E(UB2PLYPD3) =  -308.795385571     A.U. after   17 cycles
 E2(B2PLYPD3) =    -0.3927622852D+00 E(B2PLYPD3) =    -0.30918814785662D+03
 SCF Done:  E(UB2PLYPD3) =  -308.795475944     A.U. after   15 cycles
 E2(B2PLYPD3) =    -0.3928877597D+00 E(B2PLYPD3) =    -0.30918836370375D+03
 SCF Done:  E(UB2PLYPD3) =  -308.795294309     A.U. after   18 cycles
 E2(B2PLYPD3) =    -0.3930805364D+00 E(B2PLYPD3) =    -0.30918837484546D+03
 SCF Done:  E(UB2PLYPD3) =  -308.795387351     A.U. after   14 cycles
 E2(B2PLYPD3) =    -0.3930286077D+00 E(B2PLYPD3) =    -0.30918841595891D+03
 SCF Done:  E(UB2PLYPD3) =  -308.795422172     A.U. after   14 cycles
 E2(B2PLYPD3) =    -0.3929917173D+00 E(B2PLYPD3) =    -0.30918841388919D+03
 SCF Done:  E(UB2PLYPD3) =  -308.795396493     A.U. after   13 cycles
 E2(B2PLYPD3) =    -0.3930214469D+00 E(B2PLYPD3) =    -0.30918841793977D+03
 Optimization completed.
    -- Stationary point found.

 1\1\GINC-N144\FTS\UB2PLYPD3-FC\CC-pVTZ\C4H11O2(2)\ROOT\25-Jun-2019\0\\
 # opt=(calcfc,ts,noeigentest,maxcyc=500) freq=noraman uB2PLYPD3/cc-pvt
 z\\Title Card Required\\0,2\C,1.4612867354,-0.6256991087,-0.5423063336
 \H,1.3670357409,-1.4957314279,0.1066962712\H,0.7469080085,-0.731989079
 9,-1.3563593335\C,1.2527859375,0.6477987184,0.2287044496\H,1.108877517
 6,1.5289939298,-0.3936544134\C,-2.2993695346,-0.5825684671,-0.34160826
 24\H,-1.7458793229,-0.0647979075,-1.1267633162\H,-2.6742695574,-1.5325
 671283,-0.7172026979\H,-3.1245607619,0.0406778943,-0.0011938926\O,-1.4

 Normal termination of Gaussian 16 at Tue Jun 25 07:34:41 2019.

 ----------------------------------------------------------------------
 #N Geom=AllCheck Guess=TCheck SCRF=Check GenChk UB2PLYPD3(FC)/CC-pVTZ
 Freq
 ----------------------------------------------------------------------

 Structure from the checkpoint file:  "/localscratch/353444/Gau-88316.chk"
 -------------------
 Title Card Required
 -------------------
 Charge =  0 Multiplicity = 2

                         Standard orientation:
 ---------------------------------------------------------------------
 Center     Atomic      Atomic             Coordinates (Angstroms)
 Number     Number       Type             X           Y           Z
 ---------------------------------------------------------------------
      1          6           0        1.095654    1.452625   -0.216338
      2          1           0        0.855931    1.286217   -1.266045
      3          1           0        0.281501    2.019702    0.230759
      4          6           0        1.333911    0.150387    0.495796
      5          1           0        1.352456    0.230929    1.581022
      6          6           0       -2.460285    0.345972    0.345173
      7          1           0       -1.893028    0.904919    1.091299
      8          1           0       -3.119474    1.018744   -0.199774
      9          1           0       -3.039261   -0.436135    0.833388
     10          8           0       -1.596490   -0.209312   -0.635672
     11          8           0       -0.770554   -1.152320    0.005385
     12          1           0        0.206630   -0.540276    0.293198
     13          1           0        1.994420    2.077191   -0.177478
     14          6           0        2.403231   -0.742921   -0.071524
     15          1           0        2.437141   -1.705024    0.436344
     16          1           0        2.236611   -0.922400   -1.133170
     17          1           0        3.388363   -0.277190    0.034118
 ---------------------------------------------------------------------

 SCF Done:  E(UB2PLYPD3) =  -308.795396493     A.U. after    1 cycles
 E2(B2PLYPD3) =    -0.3930214394D+00 E(B2PLYPD3) =    -0.30918841793227D+03
 E2(B2PLYPD3) =    -0.3930214394D+00 E(B2PLYPD3) =    -0.30918841793227D+03

 The electronic state is 2-A.
 Alpha  occ. eigenvalues --  -19.78338 -19.78015 -10.65860 -10.63987 -10.61100
 Alpha  occ. eigenvalues --  -10.61092  -1.26994  -1.01598  -0.91876  -0.80272
 Alpha  occ. eigenvalues --   -0.77450  -0.69110  -0.60582  -0.55513  -0.54369
 Alpha  occ. eigenvalues --   -0.53449  -0.51602  -0.48262  -0.47917  -0.45976
 Alpha  occ. eigenvalues --   -0.43796  -0.42143  -0.41732  -0.36417  -0.36199
 Alpha  occ. eigenvalues --   -0.28859
 Alpha virt. eigenvalues --    0.07370   0.09445   0.10959   0.11949   0.14029
 Alpha virt. eigenvalues --    0.14322   0.15195   0.15774   0.16412   0.18549
 Alpha virt. eigenvalues --    0.19248   0.19585   0.22841   0.26489   0.27675

  Beta  occ. eigenvalues --  -19.78182 -19.76326 -10.65869 -10.62777 -10.61156
  Beta  occ. eigenvalues --  -10.61147  -1.25071  -0.98570  -0.89974  -0.80083
  Beta  occ. eigenvalues --   -0.77026  -0.66591  -0.57359  -0.54360  -0.53952
  Beta  occ. eigenvalues --   -0.52903  -0.50077  -0.47695  -0.45452  -0.44303
  Beta  occ. eigenvalues --   -0.42811  -0.41777  -0.41318  -0.34929  -0.32924
  Beta virt. eigenvalues --   -0.03755   0.07478   0.09519   0.11203   0.12155
  Beta virt. eigenvalues --    0.14251   0.14857   0.15342   0.15865   0.16483
  Beta virt. eigenvalues --    0.18711   0.19696   0.19796   0.23362   0.26966

 Mulliken charges and spin densities:
               1          2
     1  C   -0.299285  -0.029570
     2  H    0.116151   0.007383
     3  H    0.106485   0.003007
     4  C   -0.149814   0.579080
     5  H    0.113280  -0.006735
     6  C   -0.059191  -0.003940
     7  H    0.065653   0.001273
     8  H    0.096063  -0.001001
     9  H    0.094003   0.001999
    10  O   -0.191076   0.026963
    11  O   -0.232035   0.433448
    12  H    0.211951  -0.070697
    13  H    0.102716   0.041262
    14  C   -0.291414  -0.027682
    15  H    0.111195   0.003331
    16  H    0.106997   0.005379
    17  H    0.098324   0.036499
 Sum of Mulliken charges =   0.00000   1.00000

 Dipole moment (field-independent basis, Debye):
    X=              0.7886    Y=              1.8022    Z=              1.3007  Tot=              2.3583
 Quadrupole moment (field-independent basis, Debye-Ang):
   XX=            -34.3169   YY=            -40.7346   ZZ=            -39.8071
   XY=             -2.4745   XZ=             -1.5986   YZ=             -0.2651

  Exact polarizability: 102.226   3.122  63.693   2.526  -0.421  53.850
 Approx polarizability:  84.842   2.927  70.234   4.943  -0.450  64.297

 ******    1 imaginary frequencies (negative Signs) ******

                      1                      2                      3
                      A                      A                      A
 Frequencies --  -1877.1865                13.7819                88.0422
 Red. masses --      1.1098                 3.1329                 2.9778
 Frc consts  --      2.3041                 0.0004                 0.0136
 IR Inten    --   1959.4809                 2.2969                 1.6865

                      4                      5                      6
                      A                      A                      A
 Frequencies --    118.1573               138.4218               176.2818
 Red. masses --      2.2262                 1.9914                 1.1288
 Frc consts  --      0.0183                 0.0225                 0.0207
 IR Inten    --      2.8482                 1.2398                 0.0869

                      7                      8                      9
                      A                      A                      A
 Frequencies --    194.5801               222.9350               321.8836
 Red. masses --      1.2262                 1.2921                 2.9045
 Frc consts  --      0.0274                 0.0378                 0.1773
 IR Inten    --      0.3211                 1.7376                 0.8129

                     10                     11                     12
                      A                      A                      A
 Frequencies --    371.0166               466.7465               545.2788
 Red. masses --      2.0649                 3.6578                 3.5800
 Frc consts  --      0.1675                 0.4695                 0.6271
 IR Inten    --      0.3100                 5.8302                 1.1325

                     13                     14                     15
                      A                      A                      A
 Frequencies --    789.1014               895.4496               918.3821
 Red. masses --      1.0882                 2.5417                 4.5667
 Frc consts  --      0.3992                 1.2008                 2.2693
 IR Inten    --     12.4144                 0.3400                 9.3016

                     16                     17                     18
                      A                      A                      A
 Frequencies --    938.4222               947.8861              1055.6712
 Red. masses --      1.1478                 1.2785                 7.6075
 Frc consts  --      0.5955                 0.6768                 4.9952
 IR Inten    --      0.9032                 0.2248                46.8735

                     19                     20                     21
                      A                      A                      A
 Frequencies --   1114.8087              1136.8827              1177.8655
 Red. masses --      1.4147                 1.8009                 1.2756
 Frc consts  --      1.0359                 1.3714                 1.0427
 IR Inten    --     17.5440                 6.8351                 1.1272

                     22                     23                     24
                      A                      A                      A
 Frequencies --   1200.1064              1208.8279              1223.9817
 Red. masses --      1.8377                 1.5195                 1.5078
 Frc consts  --      1.5594                 1.3083                 1.3309
 IR Inten    --      1.9253                 8.0164                11.2055

                     25                     26                     27
                      A                      A                      A
 Frequencies --   1365.3062              1410.5151              1421.3405
 Red. masses --      1.3256                 1.2855                 1.2195
 Frc consts  --      1.4558                 1.5069                 1.4516
 IR Inten    --      3.7961                11.6366                 5.1670

                     28                     29                     30
                      A                      A                      A
 Frequencies --   1457.3172              1465.4605              1481.6039
 Red. masses --      1.1393                 1.0948                 1.0503
 Frc consts  --      1.4256                 1.3853                 1.3584
 IR Inten    --      3.9477                 1.4960                 7.3087

                     31                     32                     33
                      A                      A                      A
 Frequencies --   1489.9138              1491.3014              1500.5350
 Red. masses --      1.0511                 1.0616                 1.0425
 Frc consts  --      1.3747                 1.3911                 1.3830
 IR Inten    --      0.4367                 2.4669                 8.2169

                     34                     35                     36
                      A                      A                      A
 Frequencies --   1509.0636              1518.6638              3015.0707
 Red. masses --      1.0534                 1.0511                 1.0483
 Frc consts  --      1.4134                 1.4283                 5.6145
 IR Inten    --      6.5954                10.4945                12.0144

                     37                     38                     39
                      A                      A                      A
 Frequencies --   3019.9071              3034.9457              3090.8743
 Red. masses --      1.0471                 1.0310                 1.0848
 Frc consts  --      5.6265                 5.5953                 6.1060
 IR Inten    --     38.9212                40.1715                 8.4174

                     40                     41                     42
                      A                      A                      A
 Frequencies --   3092.1704              3102.1960              3111.4460
 Red. masses --      1.0846                 1.0860                 1.1031
 Frc consts  --      6.1099                 6.1577                 6.2923
 IR Inten    --      9.5239                12.1019                42.3512

                     43                     44                     45
                      A                      A                      A
 Frequencies --   3129.1163              3134.8431              3143.9767
 Red. masses --      1.1020                 1.1003                 1.1049
 Frc consts  --      6.3574                 6.3708                 6.4345
 IR Inten    --     16.5642                37.0774                16.4103

 - Thermochemistry -
 -------------------
 Temperature   298.150 Kelvin.  Pressure   1.00000 Atm.
 Atom     1 has atomic number  6 and mass  12.00000

 Molecular mass:    91.07590 amu.
 Principal axes and moments of inertia in atomic units:
                           1         2         3
     Eigenvalues --   324.425771067.848891255.92496
           X            0.99963  -0.02172  -0.01664
           Y            0.02158   0.99973  -0.00879
           Z            0.01682   0.00843   0.99982
 This molecule is an asymmetric top.
 Rotational symmetry number  1.
 Rotational temperatures (Kelvin)      0.26698     0.08111     0.06896
 Rotational constants (GHZ):           5.56288     1.69007     1.43698
    1 imaginary frequencies ignored.
 Zero-point vibrational energy     372338.2 (Joules/Mol)
                                   88.99095 (Kcal/Mol)
 Warning -- explicit consideration of  11 degrees of freedom as
           vibrations may cause significant error
 Vibrational temperatures:     19.83   126.67   170.00   199.16   253.63
          (Kelvin)            279.96   320.75   463.12   533.81   671.54
                              784.53  1135.34  1288.35  1321.35  1350.18
                             1363.80  1518.88  1603.96  1635.72  1694.69
                             1726.69  1739.23  1761.04  1964.37  2029.42
                             2044.99  2096.75  2108.47  2131.70  2143.65
                             2145.65  2158.94  2171.21  2185.02  4338.01
                             4344.97  4366.61  4447.08  4448.94  4463.37
                             4476.68  4502.10  4510.34  4523.48

 Zero-point correction=                           0.141816 (Hartree/Particle)
 Thermal correction to Energy=                    0.151036
 Thermal correction to Enthalpy=                  0.151980
 Thermal correction to Gibbs Free Energy=         0.105984
 Sum of electronic and zero-point Energies=           -309.046602
 Sum of electronic and thermal Energies=              -309.037382
 Sum of electronic and thermal Enthalpies=            -309.036438
 Sum of electronic and thermal Free Energies=         -309.082434

                     E (Thermal)             CV                S
                      KCal/Mol        Cal/Mol-Kelvin    Cal/Mol-Kelvin
 Total                   94.776             30.051             96.807
 Electronic               0.000              0.000              1.377
 Translational            0.889              2.981             39.439
 Rotational               0.889              2.981             27.567
 Vibrational             92.999             24.089             28.424
 Vibration     1          0.593              1.986              7.374
 Vibration     2          0.601              1.958              3.703
 Vibration     3          0.608              1.934              3.130
 Vibration     4          0.614              1.915              2.826
 Vibration     5          0.628              1.872              2.367
 Vibration     6          0.635              1.847              2.184
 Vibration     7          0.649              1.806              1.935
 Vibration     8          0.707              1.632              1.301
 Vibration     9          0.743              1.532              1.076
 Vibration    10          0.824              1.324              0.747
 Vibration    11          0.900              1.150              0.554

                           ! Non-Optimized Parameters !
 Normal termination of Gaussian 16 at Tue Jun 25 08:54:03 2019.
