 Gaussian 16, Revision B.01,
 Gaussian 16:  ES64L-G16RevB.01 20-Dec-2017

 ----------------------------------------------------------------------
 # opt=(calcfc,ts,noeigentest,maxcyc=500) freq=noraman uB2PLYPD3/cc-pvt
 z
 ----------------------------------------------------------------------

 -------------------
 Title Card Required
 -------------------
 Symbolic Z-matrix:
 Charge =  0 Multiplicity = 2

 SCF Done:  E(UB2PLYPD3) =  -348.024375927     A.U. after   19 cycles
 E2(B2PLYPD3) =    -0.4489857174D+00 E(B2PLYPD3) =    -0.34847336164440D+03
 E2(B2PLYPD3) =    -0.4489857174D+00 E(B2PLYPD3) =    -0.34847336164440D+03
 SCF Done:  E(UB2PLYPD3) =  -348.024345163     A.U. after   14 cycles
 E2(B2PLYPD3) =    -0.4490514888D+00 E(B2PLYPD3) =    -0.34847339665167D+03
 SCF Done:  E(UB2PLYPD3) =  -348.024348894     A.U. after   12 cycles
 E2(B2PLYPD3) =    -0.4490510785D+00 E(B2PLYPD3) =    -0.34847339997293D+03
 SCF Done:  E(UB2PLYPD3) =  -348.024343426     A.U. after   12 cycles
 E2(B2PLYPD3) =    -0.4490574894D+00 E(B2PLYPD3) =    -0.34847340091497D+03
 SCF Done:  E(UB2PLYPD3) =  -348.024342695     A.U. after   12 cycles
 E2(B2PLYPD3) =    -0.4490583347D+00 E(B2PLYPD3) =    -0.34847340102988D+03
 SCF Done:  E(UB2PLYPD3) =  -348.024340656     A.U. after   10 cycles
 E2(B2PLYPD3) =    -0.4490603706D+00 E(B2PLYPD3) =    -0.34847340102684D+03
 Optimization completed.
    -- Stationary point found.

 1\1\GINC-N145\FTS\UB2PLYPD3-FC\CC-pVTZ\C5H13O2(2)\ROOT\24-Jun-2019\0\\
 # opt=(calcfc,ts,noeigentest,maxcyc=500) freq=noraman uB2PLYPD3/cc-pvt
 z\\Title Card Required\\0,2\C,-2.7353452151,-0.3469328389,0.3444233427
 \H,-2.1948906176,-0.8412724332,-0.4649365042\H,-2.8978602962,-1.046193
 6296,1.162160682\H,-3.6873899506,0.0303091878,-0.02480337\O,-1.9611353
 521,0.7057237081,0.9000296875\O,-1.8056672954,1.6938249882,-0.09284120
 43\H,-0.8205332926,1.3983468139,-0.636126103\C,0.3673007154,1.00948012
 74,-1.1833991468\C,1.1599159222,0.4683733322,-0.0309326657\H,0.7184306

 Normal termination of Gaussian 16 at Mon Jun 24 13:39:13 2019.

 ----------------------------------------------------------------------
 #N Geom=AllCheck Guess=TCheck SCRF=Check GenChk UB2PLYPD3(FC)/CC-pVTZ
 Freq
 ----------------------------------------------------------------------

 Structure from the checkpoint file:  "/localscratch/353445/Gau-9436.chk"
 -------------------
 Title Card Required
 -------------------
 Charge =  0 Multiplicity = 2

                         Standard orientation:
 ---------------------------------------------------------------------
 Center     Atomic      Atomic             Coordinates (Angstroms)
 Number     Number       Type             X           Y           Z
 ---------------------------------------------------------------------
      1          6           0        2.714401   -0.993968    0.632208
      2          1           0        2.075428   -0.743286    1.480972
      3          1           0        2.794202   -2.074874    0.535539
      4          1           0        3.700184   -0.553306    0.770336
      5          8           0        2.133971   -0.550855   -0.585551
      6          8           0        2.100111    0.857809   -0.556810
      7          1           0        1.062543    1.107821   -0.094315
      8          6           0       -0.189836    1.311543    0.407401
      9          6           0       -1.016460    0.198987   -0.165421
     10          1           0       -0.405434    2.310163    0.037664
     11          1           0       -0.035703    1.287198    1.482672
     12          6           0       -2.468183    0.224779    0.338216
     13          1           0       -1.014623    0.261599   -1.254827
     14          1           0       -0.570342   -0.764617    0.088909
     15          6           0       -3.299375   -0.911422   -0.248503
     16          1           0       -2.470666    0.161941    1.428181
     17          1           0       -2.919675    1.185197    0.082675
     18          1           0       -4.325077   -0.881393    0.116597
     19          1           0       -3.329347   -0.850940   -1.336330
     20          1           0       -2.877427   -1.880661    0.017401
 ---------------------------------------------------------------------

 SCF Done:  E(UB2PLYPD3) =  -348.024340656     A.U. after    1 cycles
 E2(B2PLYPD3) =    -0.4490603712D+00 E(B2PLYPD3) =    -0.34847340102752D+03
 E2(B2PLYPD3) =    -0.4490603712D+00 E(B2PLYPD3) =    -0.34847340102752D+03

 The electronic state is 2-A.
 Alpha  occ. eigenvalues --  -19.78426 -19.78160 -10.65957 -10.63527 -10.61635
 Alpha  occ. eigenvalues --  -10.61562 -10.60408  -1.27125  -1.01857  -0.92642
 Alpha  occ. eigenvalues --   -0.84922  -0.77637  -0.73897  -0.67786  -0.60682
 Alpha  occ. eigenvalues --   -0.56088  -0.55215  -0.54291  -0.50615  -0.50221
 Alpha  occ. eigenvalues --   -0.49752  -0.46867  -0.43918  -0.42918  -0.42216
 Alpha  occ. eigenvalues --   -0.40797  -0.39418  -0.36680  -0.36333  -0.29541
 Alpha virt. eigenvalues --    0.07048   0.08874   0.09969   0.11349   0.12478
 Alpha virt. eigenvalues --    0.13209   0.14338   0.15341   0.15856   0.16569
 Alpha virt. eigenvalues --    0.17231   0.18331   0.19674   0.21430   0.23111

  Beta  occ. eigenvalues --  -19.78282 -19.76561 -10.65966 -10.62265 -10.61628
  Beta  occ. eigenvalues --  -10.61498 -10.60389  -1.25282  -0.98977  -0.91789
  Beta  occ. eigenvalues --   -0.83363  -0.77228  -0.72151  -0.67281  -0.57353
  Beta  occ. eigenvalues --   -0.55623  -0.54219  -0.53984  -0.50173  -0.49486
  Beta  occ. eigenvalues --   -0.47662  -0.45359  -0.43151  -0.42678  -0.40854
  Beta  occ. eigenvalues --   -0.40228  -0.39312  -0.35183  -0.33302
  Beta virt. eigenvalues --   -0.04301   0.07166   0.08961   0.10252   0.11442
  Beta virt. eigenvalues --    0.12665   0.13698   0.14543   0.15466   0.15953
  Beta virt. eigenvalues --    0.16653   0.17324   0.18590   0.19873   0.21832

 Mulliken charges and spin densities:
               1          2
     1  C   -0.061971  -0.003573
     2  H    0.067224   0.000724
     3  H    0.096070  -0.000843
     4  H    0.096913   0.002054
     5  O   -0.190286   0.025710
     6  O   -0.225738   0.409172
     7  H    0.219178  -0.074241
     8  C   -0.315846   0.649756
     9  C   -0.144927  -0.035109
    10  H    0.123327  -0.012148
    11  H    0.114050  -0.013128
    12  C   -0.159983   0.033334
    13  H    0.106127   0.003464
    14  H    0.103824   0.006171
    15  C   -0.305094   0.008866
    16  H    0.090455  -0.000659
    17  H    0.092541  -0.000245
    18  H    0.103851   0.001448
    19  H    0.096229  -0.000386
    20  H    0.094057  -0.000366
 Sum of Mulliken charges =  -0.00000   1.00000

 Dipole moment (field-independent basis, Debye):
    X=             -1.4491    Y=             -0.4794    Z=              2.0267  Tot=              2.5372
 Quadrupole moment (field-independent basis, Debye-Ang):
   XX=            -46.8662   YY=            -44.7714   ZZ=            -46.7400
   XY=             -3.9509   XZ=              4.7338   YZ=             -0.8228

  Exact polarizability: 113.511  -8.809  77.660  -3.533   1.416  65.311
 Approx polarizability:  92.771  -5.504  86.240  -5.187   0.819  77.649

 ******    1 imaginary frequencies (negative Signs) ******

                      1                      2                      3
                      A                      A                      A
 Frequencies --  -1891.0739                11.7645                43.3052
 Red. masses --      1.1067                 2.2812                 2.1845
 Frc consts  --      2.3318                 0.0002                 0.0024
 IR Inten    --   1882.1024                 2.0813                 0.1820

                      4                      5                      6
                      A                      A                      A
 Frequencies --     74.3886                91.6757               126.3699
 Red. masses --      3.7349                 3.0372                 1.9421
 Frc consts  --      0.0122                 0.0150                 0.0183
 IR Inten    --      3.0978                 2.3560                 0.3570

                      7                      8                      9
                      A                      A                      A
 Frequencies --    176.0656               232.7426               244.8328
 Red. masses --      1.7304                 1.7804                 1.1076
 Frc consts  --      0.0316                 0.0568                 0.0391
 IR Inten    --      0.3366                 1.7917                 0.0176

                     10                     11                     12
                      A                      A                      A
 Frequencies --    329.5049               388.8806               453.8626
 Red. masses --      2.7395                 3.1856                 2.4353
 Frc consts  --      0.1752                 0.2838                 0.2956
 IR Inten    --      0.8051                 2.0603                 3.9272

                     13                     14                     15
                      A                      A                      A
 Frequencies --    517.6893               571.9372               741.8160
 Red. masses --      1.4251                 2.7961                 1.0695
 Frc consts  --      0.2250                 0.5389                 0.3467
 IR Inten    --      2.2936                 0.9933                 2.5443

                     16                     17                     18
                      A                      A                      A
 Frequencies --    816.6931               880.9475               913.5000
 Red. masses --      1.1180                 2.1384                 5.0468
 Frc consts  --      0.4393                 0.9778                 2.4813
 IR Inten    --      0.0213                 0.6080                13.8337

                     19                     20                     21
                      A                      A                      A
 Frequencies --    965.4955              1020.0881              1035.6350
 Red. masses --      1.1213                 1.3392                 3.0110
 Frc consts  --      0.6159                 0.8211                 1.9027
 IR Inten    --      1.4245                10.3492                 1.5162

                     22                     23                     24
                      A                      A                      A
 Frequencies --   1054.3183              1069.2161              1112.2782
 Red. masses --      6.6019                 2.1208                 1.4839
 Frc consts  --      4.3238                 1.4285                 1.0816
 IR Inten    --     40.4440                 8.6865                14.5656

                     25                     26                     27
                      A                      A                      A
 Frequencies --   1158.5776              1177.4121              1216.0433
 Red. masses --      1.6305                 1.2739                 1.5792
 Frc consts  --      1.2895                 1.0405                 1.3759
 IR Inten    --      2.8902                 2.0012                 4.1540

                     28                     29                     30
                      A                      A                      A
 Frequencies --   1218.7582              1303.3984              1321.4519
 Red. masses --      1.7012                 1.2314                 1.3445
 Frc consts  --      1.4888                 1.2326                 1.3833
 IR Inten    --      0.9264                 0.9212                 0.4557

                     31                     32                     33
                      A                      A                      A
 Frequencies --   1337.7531              1377.8325              1421.6000
 Red. masses --      1.0649                 1.4334                 1.2328
 Frc consts  --      1.1228                 1.6033                 1.4679
 IR Inten    --      0.3205                 4.3445                 2.3746

                     34                     35                     36
                      A                      A                      A
 Frequencies --   1452.3496              1458.6243              1477.8398
 Red. masses --      1.0631                 1.1320                 1.1260
 Frc consts  --      1.3212                 1.4191                 1.4490
 IR Inten    --     12.4362                 5.1850                 0.8114

                     37                     38                     39
                      A                      A                      A
 Frequencies --   1483.1228              1498.8093              1508.0759
 Red. masses --      1.0708                 1.0866                 1.0600
 Frc consts  --      1.3877                 1.4381                 1.4203
 IR Inten    --     10.5953                 2.1443                 0.9739

                     40                     41                     42
                      A                      A                      A
 Frequencies --   1512.4063              1517.9563              1522.7336
 Red. masses --      1.0396                 1.0534                 1.0834
 Frc consts  --      1.4011                 1.4301                 1.4801
 IR Inten    --      7.2135                11.1211                 3.7910

                     43                     44                     45
                      A                      A                      A
 Frequencies --   3033.6452              3040.1890              3047.3319
 Red. masses --      1.0318                 1.0578                 1.0402
 Frc consts  --      5.5944                 5.7602                 5.6912
 IR Inten    --     36.7508                 9.1505                15.2452

                     46                     47                     48
                      A                      A                      A
 Frequencies --   3050.2652              3069.0364              3092.0646
 Red. masses --      1.0545                 1.1010                 1.1032
 Frc consts  --      5.7807                 6.1102                 6.2143
 IR Inten    --     42.0956                 2.1112                13.5865

                     49                     50                     51
                      A                      A                      A
 Frequencies --   3094.0775              3111.0108              3118.2561
 Red. masses --      1.0539                 1.1022                 1.1029
 Frc consts  --      5.9447                 6.2849                 6.3186
 IR Inten    --     20.0191                45.0989                51.2449

                     52                     53                     54
                      A                      A                      A
 Frequencies --   3120.4657              3144.6392              3176.2308
 Red. masses --      1.1015                 1.1050                 1.1116
 Frc consts  --      6.3192                 6.4381                 6.6071
 IR Inten    --     33.9538                15.3442                18.3452

 - Thermochemistry -
 -------------------
 Temperature   298.150 Kelvin.  Pressure   1.00000 Atm.
 Atom     1 has atomic number  6 and mass  12.00000

 Molecular mass:   105.09155 amu.
 Principal axes and moments of inertia in atomic units:
                           1         2         3
     Eigenvalues --   396.542141999.340212180.00555
           X            0.99986  -0.00162   0.01654
           Y            0.00158   1.00000   0.00254
           Z           -0.01654  -0.00252   0.99986
 This molecule is an asymmetric top.
 Rotational symmetry number  1.
 Rotational temperatures (Kelvin)      0.21842     0.04332     0.03973
 Rotational constants (GHZ):           4.55120     0.90267     0.82786
    1 imaginary frequencies ignored.
 Zero-point vibrational energy     448210.6 (Joules/Mol)
                                  107.12491 (Kcal/Mol)
 Warning -- explicit consideration of  13 degrees of freedom as
           vibrations may cause significant error
 Vibrational temperatures:     16.93    62.31   107.03   131.90   181.82
          (Kelvin)            253.32   334.86   352.26   474.08   559.51
                              653.01   744.84   822.89  1067.31  1175.04
                             1267.49  1314.32  1389.13  1467.68  1490.05
                             1516.93  1538.36  1600.32  1666.93  1694.03
                             1749.62  1753.52  1875.30  1901.27  1924.73
                             1982.39  2045.37  2089.61  2098.64  2126.28
                             2133.88  2156.45  2169.78  2176.02  2184.00
                             2190.87  4364.74  4374.15  4384.43  4388.65
                             4415.66  4448.79  4451.69  4476.05  4486.48
                             4489.65  4524.43  4569.89

 Zero-point correction=                           0.170714 (Hartree/Particle)
 Thermal correction to Energy=                    0.181123
 Thermal correction to Enthalpy=                  0.182067
 Thermal correction to Gibbs Free Energy=         0.131987
 Sum of electronic and zero-point Energies=           -348.302687
 Sum of electronic and thermal Energies=              -348.292278
 Sum of electronic and thermal Enthalpies=            -348.291334
 Sum of electronic and thermal Free Energies=         -348.341414

                     E (Thermal)             CV                S
                      KCal/Mol        Cal/Mol-Kelvin    Cal/Mol-Kelvin
 Total                  113.656             34.534            105.401
 Electronic               0.000              0.000              1.377
 Translational            0.889              2.981             39.866
 Rotational               0.889              2.981             28.937
 Vibrational            111.879             28.573             35.220
 Vibration     1          0.593              1.987              7.688
 Vibration     2          0.595              1.980              5.102
 Vibration     3          0.599              1.966              4.034
 Vibration     4          0.602              1.955              3.624
 Vibration     5          0.611              1.927              3.001
 Vibration     6          0.628              1.872              2.370
 Vibration     7          0.653              1.791              1.858
 Vibration     8          0.660              1.771              1.767
 Vibration     9          0.712              1.617              1.263
 Vibration    10          0.757              1.494              1.004
 Vibration    11          0.812              1.352              0.784
 Vibration    12          0.873              1.211              0.615
 Vibration    13          0.928              1.092              0.501

 Optimization completed.
    -- Stationary point found.
 Normal termination of Gaussian 16 at Mon Jun 24 16:15:28 2019.
