 Gaussian 16, Revision B.01,
 Gaussian 16:  ES64L-G16RevB.01 20-Dec-2017

 ----------------------------------------------------------------------
 # opt=(calcfc,ts,noeigentest,maxcyc=500) freq=noraman uB2PLYPD3/cc-pvt
 z
 ----------------------------------------------------------------------

 -------------------
 Title Card Required
 -------------------
 Symbolic Z-matrix:
 Charge =  0 Multiplicity = 2

 SCF Done:  E(UB2PLYPD3) =  -348.023951066     A.U. after   19 cycles
 E2(B2PLYPD3) =    -0.4480109787D+00 E(B2PLYPD3) =    -0.34847196204500D+03
 E2(B2PLYPD3) =    -0.4480109787D+00 E(B2PLYPD3) =    -0.34847196204500D+03
 SCF Done:  E(UB2PLYPD3) =  -348.023892413     A.U. after   14 cycles
 E2(B2PLYPD3) =    -0.4485702848D+00 E(B2PLYPD3) =    -0.34847246269743D+03
 SCF Done:  E(UB2PLYPD3) =  -348.023851888     A.U. after   12 cycles
 E2(B2PLYPD3) =    -0.4486162903D+00 E(B2PLYPD3) =    -0.34847246817854D+03
 SCF Done:  E(UB2PLYPD3) =  -348.023850240     A.U. after   10 cycles
 E2(B2PLYPD3) =    -0.4486181511D+00 E(B2PLYPD3) =    -0.34847246839087D+03
 SCF Done:  E(UB2PLYPD3) =  -348.023851487     A.U. after   10 cycles
 E2(B2PLYPD3) =    -0.4486169336D+00 E(B2PLYPD3) =    -0.34847246842084D+03
 SCF Done:  E(UB2PLYPD3) =  -348.023850799     A.U. after   10 cycles
 E2(B2PLYPD3) =    -0.4486176311D+00 E(B2PLYPD3) =    -0.34847246843010D+03
 Optimization completed.
    -- Stationary point found.
 Normal termination of Gaussian 16 at Fri Jun  7 22:30:44 2019.

 ----------------------------------------------------------------------
 #N Geom=AllCheck Guess=TCheck SCRF=Check GenChk UB2PLYPD3(FC)/CC-pVTZ
 Freq
 ----------------------------------------------------------------------

 Structure from the checkpoint file:  "/localscratch/341085/Gau-39450.chk"
 -------------------
 Title Card Required
 -------------------
 Charge =  0 Multiplicity = 2

                         Standard orientation:
 ---------------------------------------------------------------------
 Center     Atomic      Atomic             Coordinates (Angstroms)
 Number     Number       Type             X           Y           Z
 ---------------------------------------------------------------------
      1          6           0       -2.798993    1.208957   -0.218078
      2          1           0       -1.812565    1.545918   -0.542105
      3          1           0       -3.551854    1.529440   -0.935368
      4          1           0       -3.021086    1.613868    0.767865
      5          8           0       -2.872074   -0.208464   -0.207009
      6          8           0       -1.989625   -0.675821    0.787014
      7          1           0       -0.985164   -0.847325    0.225205
      8          6           0        0.196697   -0.994399   -0.433056
      9          6           0        1.202091   -0.103319    0.235628
     10          1           0       -0.106425   -0.710334   -1.437616
     11          1           0        0.366687   -2.062690   -0.333433
     12          6           0        2.591366   -0.196115   -0.413913
     13          1           0        0.864600    0.934449    0.200078
     14          1           0        1.289312   -0.367775    1.291435
     15          6           0        3.608752    0.712383    0.268507
     16          1           0        2.934674   -1.231606   -0.376648
     17          1           0        2.510394    0.065016   -1.470802
     18          1           0        4.587556    0.634791   -0.202655
     19          1           0        3.295812    1.755408    0.219110
     20          1           0        3.722180    0.450085    1.320372
 ---------------------------------------------------------------------

 SCF Done:  E(UB2PLYPD3) =  -348.023850799     A.U. after    1 cycles
 E2(B2PLYPD3) =    -0.4486176334D+00 E(B2PLYPD3) =    -0.34847246843241D+03
 E2(B2PLYPD3) =    -0.4486176334D+00 E(B2PLYPD3) =    -0.34847246843241D+03

 The electronic state is 2-A.
 Alpha  occ. eigenvalues --  -19.78289 -19.78175 -10.65892 -10.63587 -10.62051
 Alpha  occ. eigenvalues --  -10.61879 -10.60679  -1.27059  -1.01818  -0.92917
 Alpha  occ. eigenvalues --   -0.85108  -0.77540  -0.74210  -0.68136  -0.60526
 Alpha  occ. eigenvalues --   -0.56297  -0.55236  -0.54225  -0.50755  -0.50277
 Alpha  occ. eigenvalues --   -0.49987  -0.47074  -0.43912  -0.43163  -0.42631
 Alpha  occ. eigenvalues --   -0.41108  -0.39749  -0.36347  -0.36236  -0.29762
 Alpha virt. eigenvalues --    0.06918   0.08781   0.09942   0.10961   0.12220
 Alpha virt. eigenvalues --    0.13144   0.14355   0.15593   0.15848   0.16163
 Alpha virt. eigenvalues --    0.16610   0.17790   0.20090   0.22140   0.22685

  Beta  occ. eigenvalues --  -19.78157 -19.76561 -10.65901 -10.62324 -10.62109
  Beta  occ. eigenvalues --  -10.61760 -10.60659  -1.25206  -0.98924  -0.92092
  Beta  occ. eigenvalues --   -0.83574  -0.77134  -0.72407  -0.67656  -0.57227
  Beta  occ. eigenvalues --   -0.55884  -0.54178  -0.53913  -0.50410  -0.49604
  Beta  occ. eigenvalues --   -0.47864  -0.45305  -0.43211  -0.42738  -0.41338
  Beta  occ. eigenvalues --   -0.40732  -0.39652  -0.35121  -0.33076
  Beta virt. eigenvalues --   -0.04380   0.07020   0.08851   0.10189   0.11097
  Beta virt. eigenvalues --    0.12306   0.13743   0.14617   0.15689   0.15968
  Beta virt. eigenvalues --    0.16199   0.16729   0.17951   0.20429   0.22712

 Mulliken charges and spin densities:
               1          2
     1  C   -0.052350  -0.003817
     2  H    0.062464   0.001422
     3  H    0.098121  -0.001009
     4  H    0.083306   0.002136
     5  O   -0.188731   0.023737
     6  O   -0.223640   0.413390
     7  H    0.218721  -0.075973
     8  C   -0.304932   0.655363
     9  C   -0.156111  -0.037954
    10  H    0.121670  -0.013850
    11  H    0.123322  -0.013425
    12  C   -0.160373   0.030761
    13  H    0.098442   0.004892
    14  H    0.103199   0.005563
    15  C   -0.305543   0.008944
    16  H    0.094785  -0.000645
    17  H    0.092847  -0.000218
    18  H    0.105541   0.001462
    19  H    0.093718  -0.000398
    20  H    0.095543  -0.000381
 Sum of Mulliken charges =  -0.00000   1.00000

 Dipole moment (field-independent basis, Debye):
    X=              2.1485    Y=              1.5272    Z=             -0.9991  Tot=              2.8189
 Quadrupole moment (field-independent basis, Debye-Ang):
   XX=            -49.5462   YY=            -44.5222   ZZ=            -46.7616
   XY=             -6.5871   XZ=              1.9047   YZ=             -0.1408

  Exact polarizability: 122.789  -8.600  71.999  -3.910   0.829  66.959
 Approx polarizability:  98.061  -5.005  78.617  -2.249  -1.718  80.303

 ******    1 imaginary frequencies (negative Signs) ******

                      1                      2                      3
                      A                      A                      A
 Frequencies --  -1917.8884                19.5596                49.7661
 Red. masses --      1.1066                 2.9303                 1.8915
 Frc consts  --      2.3981                 0.0007                 0.0028
 IR Inten    --   2323.5209                 1.7448                 0.4914

                      4                      5                      6
                      A                      A                      A
 Frequencies --     63.9301               100.4536               124.7520
 Red. masses --      2.9917                 3.3645                 2.0286
 Frc consts  --      0.0072                 0.0200                 0.0186
 IR Inten    --      1.8655                 2.1043                 0.6054

                      7                      8                      9
                      A                      A                      A
 Frequencies --    159.1017               237.0799               245.5989
 Red. masses --      1.9582                 1.7632                 1.1587
 Frc consts  --      0.0292                 0.0584                 0.0412
 IR Inten    --      0.9129                 1.9177                 0.0387

                     10                     11                     12
                      A                      A                      A
 Frequencies --    269.5112               389.5164               458.5778
 Red. masses --      2.1769                 2.8041                 2.8443
 Frc consts  --      0.0932                 0.2507                 0.3524
 IR Inten    --      1.1688                 2.5463                 4.4255

                     13                     14                     15
                      A                      A                      A
 Frequencies --    533.3364               617.1502               743.8320
 Red. masses --      1.4891                 2.5038                 1.0698
 Frc consts  --      0.2496                 0.5619                 0.3487
 IR Inten    --      1.2623                 0.6680                 2.6303

                     16                     17                     18
                      A                      A                      A
 Frequencies --    818.2275               870.1537               914.5434
 Red. masses --      1.1183                 2.0032                 5.2508
 Frc consts  --      0.4411                 0.8937                 2.5875
 IR Inten    --      0.0810                 1.2521                17.0849

                     19                     20                     21
                      A                      A                      A
 Frequencies --    965.6360               979.6585              1034.2119
 Red. masses --      1.1542                 1.1795                 3.2043
 Frc consts  --      0.6341                 0.6669                 2.0193
 IR Inten    --      4.2740                 9.0852                 2.0373

                     22                     23                     24
                      A                      A                      A
 Frequencies --   1055.9730              1066.3304              1122.7832
 Red. masses --      6.6710                 2.3122                 1.8508
 Frc consts  --      4.3828                 1.5490                 1.3747
 IR Inten    --     31.3735                 8.6063                17.6646

                     25                     26                     27
                      A                      A                      A
 Frequencies --   1174.7643              1178.5455              1216.7437
 Red. masses --      1.3643                 1.2802                 1.5822
 Frc consts  --      1.1094                 1.0477                 1.3801
 IR Inten    --      7.1388                 4.2103                 2.5686

                     28                     29                     30
                      A                      A                      A
 Frequencies --   1219.7476              1302.2196              1320.5744
 Red. masses --      1.6964                 1.2318                 1.3491
 Frc consts  --      1.4871                 1.2307                 1.3861
 IR Inten    --      0.5586                 0.7462                 0.6079

                     31                     32                     33
                      A                      A                      A
 Frequencies --   1339.0968              1379.6079              1421.8087
 Red. masses --      1.0637                 1.4414                 1.2328
 Frc consts  --      1.1238                 1.6164                 1.4683
 IR Inten    --      0.0186                 3.0377                 1.9426

                     34                     35                     36
                      A                      A                      A
 Frequencies --   1452.2031              1459.7744              1478.9431
 Red. masses --      1.0703                 1.1284                 1.1472
 Frc consts  --      1.3299                 1.4167                 1.4784
 IR Inten    --      2.9443                 7.7167                 2.6210

                     37                     38                     39
                      A                      A                      A
 Frequencies --   1481.8262              1499.3074              1508.1673
 Red. masses --      1.0519                 1.0855                 1.0616
 Frc consts  --      1.3609                 1.4377                 1.4227
 IR Inten    --      8.5063                 1.6930                 0.3673

                     40                     41                     42
                      A                      A                      A
 Frequencies --   1512.7796              1518.3816              1522.5171
 Red. masses --      1.0397                 1.0520                 1.0844
 Frc consts  --      1.4018                 1.4290                 1.4810
 IR Inten    --      7.1011                13.2464                 5.6708

                     43                     44                     45
                      A                      A                      A
 Frequencies --   3033.0977              3038.4727              3046.6679
 Red. masses --      1.0323                 1.0568                 1.0464
 Frc consts  --      5.5956                 5.7483                 5.7229
 IR Inten    --     30.9057                 2.0069                16.7784

                     46                     47                     48
                      A                      A                      A
 Frequencies --   3049.2451              3067.3108              3088.9501
 Red. masses --      1.0480                 1.1017                 1.1040
 Frc consts  --      5.7410                 6.1068                 6.2066
 IR Inten    --     58.1967                 0.0228                18.6797

                     49                     50                     51
                      A                      A                      A
 Frequencies --   3092.6755              3109.7356              3117.6801
 Red. masses --      1.0537                 1.1024                 1.1030
 Frc consts  --      5.9380                 6.2809                 6.3167
 IR Inten    --     15.9306                46.0105                52.9342

                     52                     53                     54
                      A                      A                      A
 Frequencies --   3121.0059              3144.0911              3176.1402
 Red. masses --      1.1014                 1.1047                 1.1113
 Frc consts  --      6.3207                 6.4340                 6.6053
 IR Inten    --     33.5470                16.2648                16.3411

 - Thermochemistry -
 -------------------
 Temperature   298.150 Kelvin.  Pressure   1.00000 Atm.
 Atom     1 has atomic number  6 and mass  12.00000

 Molecular mass:   105.09155 amu.
 Principal axes and moments of inertia in atomic units:
                           1         2         3
     Eigenvalues --   321.342442356.219452485.95970
           X            0.99994  -0.00957   0.00526
           Y            0.00937   0.99928   0.03681
           Z           -0.00561  -0.03676   0.99931
 This molecule is an asymmetric top.
 Rotational symmetry number  1.
 Rotational temperatures (Kelvin)      0.26954     0.03676     0.03484
 Rotational constants (GHZ):           5.61626     0.76595     0.72597
    1 imaginary frequencies ignored.
 Zero-point vibrational energy     448071.9 (Joules/Mol)
                                  107.09174 (Kcal/Mol)
 Warning -- explicit consideration of  13 degrees of freedom as
           vibrations may cause significant error
 Vibrational temperatures:     28.14    71.60    91.98   144.53   179.49
          (Kelvin)            228.91   341.11   353.36   387.77   560.43
                              659.79   767.35   887.94  1070.21  1177.25
                             1251.96  1315.82  1389.33  1409.51  1488.00
                             1519.31  1534.21  1615.43  1690.22  1695.66
                             1750.62  1754.94  1873.60  1900.01  1926.66
                             1984.95  2045.67  2089.40  2100.29  2127.87
                             2132.02  2157.17  2169.92  2176.55  2184.61
                             2190.56  4363.95  4371.68  4383.48  4387.18
                             4413.18  4444.31  4449.67  4474.22  4485.65
                             4490.43  4523.65  4569.76

 Zero-point correction=                           0.170662 (Hartree/Particle)
 Thermal correction to Energy=                    0.181106
 Thermal correction to Enthalpy=                  0.182050
 Thermal correction to Gibbs Free Energy=         0.132297
 Sum of electronic and zero-point Energies=           -348.301807
 Sum of electronic and thermal Energies=              -348.291362
 Sum of electronic and thermal Enthalpies=            -348.290418
 Sum of electronic and thermal Free Energies=         -348.340172

                     E (Thermal)             CV                S
                      KCal/Mol        Cal/Mol-Kelvin    Cal/Mol-Kelvin
 Total                  113.646             34.546            104.715
 Electronic               0.000              0.000              1.377
 Translational            0.889              2.981             39.866
 Rotational               0.889              2.981             29.022
 Vibrational            111.868             28.584             34.450
 Vibration     1          0.593              1.986              6.678
 Vibration     2          0.595              1.978              4.827
 Vibration     3          0.597              1.972              4.332
 Vibration     4          0.604              1.949              3.445
 Vibration     5          0.610              1.928              3.025
 Vibration     6          0.621              1.892              2.560
 Vibration     7          0.656              1.784              1.825
 Vibration     8          0.660              1.770              1.762
 Vibration     9          0.674              1.729              1.599
 Vibration    10          0.757              1.493              1.002
 Vibration    11          0.817              1.342              0.770
 Vibration    12          0.888              1.176              0.580
 Vibration    13          0.977              0.996              0.421

 Optimization completed.
    -- Stationary point found.

 1\1\GINC-N58\Freq\UB2PLYPD3-FC\CC-pVTZ\C5H13O2(2)\ROOT\08-Jun-2019\0\\
 #N Geom=AllCheck Guess=TCheck SCRF=Check GenChk UB2PLYPD3(FC)/CC-pVTZ
 Freq\\Title Card Required\\0,2\C,-2.78620552,-1.2434463731,0.175086041
 5\H,-1.7960223464,-1.5863738448,0.4808865032\H,-3.5344168144,-1.604089
 7158,0.8780311308\H,-3.0071071706,-1.6035138771,-0.8283662485\O,-2.871
 9347518,0.1722094447,0.2308857228\O,-1.9961296607,0.6937439097,-0.7418
 363674\H,-0.9918575174,0.8476741215,-0.1746252623\C,0.1902620294,0.974
 2644912,0.4874190435\C,1.2019047357,0.1247245801,-0.2245063474\H,-0.10

 Normal termination of Gaussian 16 at Sat Jun  8 01:03:12 2019.
