 Gaussian 16, Revision B.01,
 Gaussian 16:  ES64L-G16RevB.01 20-Dec-2017

 ----------------------------------------------------------------------
 # opt=(calcfc,ts,noeigentest,maxcyc=500) freq=noraman uB2PLYPD3/cc-pvt
 z
 ----------------------------------------------------------------------

 -------------------
 Title Card Required
 -------------------
 Symbolic Z-matrix:
 Charge =  0 Multiplicity = 2

 SCF Done:  E(UB2PLYPD3) =  -348.024676131     A.U. after   19 cycles
 E2(B2PLYPD3) =    -0.4489531608D+00 E(B2PLYPD3) =    -0.34847362929189D+03
 E2(B2PLYPD3) =    -0.4489531608D+00 E(B2PLYPD3) =    -0.34847362929189D+03
 SCF Done:  E(UB2PLYPD3) =  -348.024737755     A.U. after   16 cycles
 E2(B2PLYPD3) =    -0.4489311317D+00 E(B2PLYPD3) =    -0.34847366888696D+03
 SCF Done:  E(UB2PLYPD3) =  -348.024732556     A.U. after   11 cycles
 E2(B2PLYPD3) =    -0.4489376284D+00 E(B2PLYPD3) =    -0.34847367018455D+03
 SCF Done:  E(UB2PLYPD3) =  -348.024730641     A.U. after   11 cycles
 E2(B2PLYPD3) =    -0.4489396242D+00 E(B2PLYPD3) =    -0.34847367026504D+03
 Optimization completed on the basis of negligible forces.
    -- Stationary point found.

 1\1\GINC-N144\FTS\UB2PLYPD3-FC\CC-pVTZ\C5H13O2(2)\ROOT\25-Jun-2019\0\\
 # opt=(calcfc,ts,noeigentest,maxcyc=500) freq=noraman uB2PLYPD3/cc-pvt
 z\\Title Card Required\\0,2\C,-2.6069671028,1.0281929757,-0.8470645398
 \H,-2.7142991202,0.0501589798,-0.3750897173\H,-3.0383670705,1.79650419
 03,-0.2086791879\H,-3.0983505175,1.0249800251,-1.8185613054\O,-1.23739
 01104,1.3783885067,-0.9789733294\O,-0.643403493,0.4654476553,-1.873757
 2081\H,-0.2321095487,-0.3900705345,-1.1912787924\C,0.3100490929,-1.351
 6058385,-0.4013724805\C,1.6810041221,-0.852568615,-0.0470594231\H,0.26

 Normal termination of Gaussian 16 at Tue Jun 25 11:56:01 2019.

 ----------------------------------------------------------------------
 #N Geom=AllCheck Guess=TCheck SCRF=Check GenChk UB2PLYPD3(FC)/CC-pVTZ
 Freq
 ----------------------------------------------------------------------

 Structure from the checkpoint file:  "/localscratch/353444/Gau-91294.chk"
 -------------------
 Title Card Required
 -------------------
 Charge =  0 Multiplicity = 2

                         Standard orientation:
 ---------------------------------------------------------------------
 Center     Atomic      Atomic             Coordinates (Angstroms)
 Number     Number       Type             X           Y           Z
 ---------------------------------------------------------------------
      1          6           0        2.949831   -0.517347    0.556006
      2          1           0        2.723043    0.267165    1.279843
      3          1           0        3.191108   -1.442167    1.076042
      4          1           0        3.783504   -0.209387   -0.072823
      5          8           0        1.810327   -0.820363   -0.234872
      6          8           0        1.504456    0.320104   -1.004741
      7          1           0        0.740487    0.918775   -0.352979
      8          6           0       -0.199683    1.583917    0.365426
      9          6           0       -1.514564    0.988738   -0.048025
     10          1           0       -0.016259    2.611730    0.066905
     11          1           0        0.114772    1.375393    1.385165
     12          6           0       -1.663262   -0.484346    0.326265
     13          1           0       -2.324175    1.563198    0.421715
     14          1           0       -1.650422    1.110991   -1.125052
     15          6           0       -3.008638   -1.059876   -0.099992
     16          1           0       -0.851789   -1.050660   -0.130547
     17          1           0       -1.542364   -0.589653    1.407161
     18          1           0       -3.098154   -2.108718    0.178722
     19          1           0       -3.833874   -0.519466    0.365264
     20          1           0       -3.136250   -0.991650   -1.180592
 ---------------------------------------------------------------------

 SCF Done:  E(UB2PLYPD3) =  -348.024730641     A.U. after    1 cycles
 E2(B2PLYPD3) =    -0.4489396252D+00 E(B2PLYPD3) =    -0.34847367026608D+03
 E2(B2PLYPD3) =    -0.4489396252D+00 E(B2PLYPD3) =    -0.34847367026608D+03

 The electronic state is 2-A.
 Alpha  occ. eigenvalues --  -19.78464 -19.78327 -10.65958 -10.63623 -10.61677
 Alpha  occ. eigenvalues --  -10.60467 -10.59783  -1.27177  -1.01948  -0.92328
 Alpha  occ. eigenvalues --   -0.84542  -0.77628  -0.73690  -0.67601  -0.60601
 Alpha  occ. eigenvalues --   -0.55671  -0.54763  -0.54014  -0.51345  -0.49971
 Alpha  occ. eigenvalues --   -0.49762  -0.46511  -0.44159  -0.43934  -0.40618
 Alpha  occ. eigenvalues --   -0.39698  -0.39024  -0.36602  -0.36234  -0.29919
 Alpha virt. eigenvalues --    0.07885   0.08635   0.10219   0.11517   0.13166
 Alpha virt. eigenvalues --    0.13416   0.14006   0.15005   0.15688   0.17280
 Alpha virt. eigenvalues --    0.18501   0.18720   0.19117   0.21374   0.22430

  Beta  occ. eigenvalues --  -19.78335 -19.76698 -10.65967 -10.62374 -10.61731
  Beta  occ. eigenvalues --  -10.60453 -10.59785  -1.25316  -0.99030  -0.91521
  Beta  occ. eigenvalues --   -0.83099  -0.77223  -0.72117  -0.66871  -0.57475
  Beta  occ. eigenvalues --   -0.54436  -0.54303  -0.53587  -0.50675  -0.49712
  Beta  occ. eigenvalues --   -0.47249  -0.44866  -0.43687  -0.42961  -0.40300
  Beta  occ. eigenvalues --   -0.39206  -0.38905  -0.35290  -0.33222
  Beta virt. eigenvalues --   -0.04364   0.08043   0.08713   0.10428   0.11642
  Beta virt. eigenvalues --    0.13374   0.13970   0.14084   0.15171   0.15713
  Beta virt. eigenvalues --    0.17356   0.18708   0.18781   0.19219   0.21908

 Mulliken charges and spin densities:
               1          2
     1  C   -0.046622  -0.003239
     2  H    0.064655   0.000780
     3  H    0.093868  -0.000973
     4  H    0.086720   0.002320
     5  O   -0.189820   0.023453
     6  O   -0.228950   0.416874
     7  H    0.215125  -0.076916
     8  C   -0.300656   0.646044
     9  C   -0.144442  -0.033097
    10  H    0.126047  -0.012810
    11  H    0.110466  -0.012807
    12  C   -0.163569   0.005644
    13  H    0.096441   0.038246
    14  H    0.098710   0.006687
    15  C   -0.306656  -0.000046
    16  H    0.121417   0.000353
    17  H    0.081174  -0.000348
    18  H    0.104134  -0.000307
    19  H    0.087330   0.000084
    20  H    0.094627   0.000058
 Sum of Mulliken charges =  -0.00000   1.00000

 Dipole moment (field-independent basis, Debye):
    X=             -0.1595    Y=              1.0198    Z=              1.9621  Tot=              2.2170
 Quadrupole moment (field-independent basis, Debye-Ang):
   XX=            -42.5270   YY=            -45.1400   ZZ=            -46.9328
   XY=             -1.1445   XZ=              3.8156   YZ=             -0.4308

  Exact polarizability: 105.414 -12.747  80.386  -2.006   1.464  67.069
 Approx polarizability:  88.259 -10.033  86.168  -2.911   0.535  81.184

 ******    1 imaginary frequencies (negative Signs) ******

                      1                      2                      3
                      A                      A                      A
 Frequencies --  -1924.5848                18.4224                62.8024
 Red. masses --      1.1053                 3.4025                 1.7601
 Frc consts  --      2.4121                 0.0007                 0.0041
 IR Inten    --   1918.9579                 2.2634                 0.9778

                      4                      5                      6
                      A                      A                      A
 Frequencies --     70.5480                94.5762               151.0944
 Red. masses --      3.7913                 2.8179                 1.9070
 Frc consts  --      0.0111                 0.0149                 0.0257
 IR Inten    --      2.1199                 2.4391                 0.2341

                      7                      8                      9
                      A                      A                      A
 Frequencies --    166.2638               241.8523               246.8514
 Red. masses --      2.2887                 1.2926                 1.3693
 Frc consts  --      0.0373                 0.0445                 0.0492
 IR Inten    --      0.9194                 0.8982                 0.6177

                     10                     11                     12
                      A                      A                      A
 Frequencies --    270.2983               426.3619               463.9682
 Red. masses --      1.8635                 2.3807                 3.5214
 Frc consts  --      0.0802                 0.2550                 0.4466
 IR Inten    --      0.6081                 0.3420                 5.8248

                     13                     14                     15
                      A                      A                      A
 Frequencies --    526.3883               619.6935               737.3426
 Red. masses --      2.5900                 1.7015                 1.0885
 Frc consts  --      0.4228                 0.3850                 0.3487
 IR Inten    --      0.4490                 0.7394                 5.9026

                     16                     17                     18
                      A                      A                      A
 Frequencies --    824.4352               849.5037               912.6726
 Red. masses --      1.1498                 1.9028                 5.0231
 Frc consts  --      0.4604                 0.8090                 2.4652
 IR Inten    --      2.3466                 1.1623                13.6557

                     19                     20                     21
                      A                      A                      A
 Frequencies --    957.9860               986.6134              1036.7062
 Red. masses --      1.1564                 1.2139                 2.4073
 Frc consts  --      0.6253                 0.6962                 1.5243
 IR Inten    --      4.8190                 3.6098                 9.0583

                     22                     23                     24
                      A                      A                      A
 Frequencies --   1053.5742              1074.2793              1127.5206
 Red. masses --      6.7158                 1.8228                 1.6153
 Frc consts  --      4.3922                 1.2394                 1.2099
 IR Inten    --     53.4261                 7.8851                 4.7801

                     25                     26                     27
                      A                      A                      A
 Frequencies --   1177.6719              1188.8914              1201.1340
 Red. masses --      1.2743                 1.8740                 1.5923
 Frc consts  --      1.0413                 1.5606                 1.3535
 IR Inten    --      1.8312                 0.6638                 2.1671

                     28                     29                     30
                      A                      A                      A
 Frequencies --   1218.3918              1273.8164              1326.9389
 Red. masses --      1.5733                 1.2903                 1.2628
 Frc consts  --      1.3761                 1.2336                 1.3100
 IR Inten    --      4.1301                 4.8009                 4.3660

                     31                     32                     33
                      A                      A                      A
 Frequencies --   1349.6352              1406.4585              1423.9595
 Red. masses --      1.1469                 1.5463                 1.2449
 Frc consts  --      1.2309                 1.8022                 1.4872
 IR Inten    --      0.2508                 2.0766                 2.2897

                     34                     35                     36
                      A                      A                      A
 Frequencies --   1449.5922              1459.4479              1467.1932
 Red. masses --      1.0663                 1.1365                 1.1384
 Frc consts  --      1.3201                 1.4263                 1.4439
 IR Inten    --      5.3926                 5.3169                 4.1776

                     37                     38                     39
                      A                      A                      A
 Frequencies --   1480.5598              1481.5070              1507.3178
 Red. masses --      1.0892                 1.0515                 1.0525
 Frc consts  --      1.4067                 1.3598                 1.4089
 IR Inten    --      2.0839                 6.5295                 1.4159

                     40                     41                     42
                      A                      A                      A
 Frequencies --   1514.2744              1518.6689              1522.1972
 Red. masses --      1.0397                 1.0515                 1.0817
 Frc consts  --      1.4047                 1.4289                 1.4767
 IR Inten    --      6.8086                11.1191                 5.9148

                     43                     44                     45
                      A                      A                      A
 Frequencies --   2983.9100              3035.5097              3040.4219
 Red. masses --      1.0700                 1.0310                 1.0693
 Frc consts  --      5.6129                 5.5972                 5.8239
 IR Inten    --     19.1676                42.0153                10.7047

                     46                     47                     48
                      A                      A                      A
 Frequencies --   3045.0086              3060.5154              3091.2644
 Red. masses --      1.0364                 1.0825                 1.0779
 Frc consts  --      5.6618                 5.9739                 6.0686
 IR Inten    --     29.9215                25.8828                10.0978

                     49                     50                     51
                      A                      A                      A
 Frequencies --   3092.8128              3112.3647              3115.8430
 Red. masses --      1.0725                 1.1034                 1.1021
 Frc consts  --      6.0443                 6.2972                 6.3041
 IR Inten    --     12.2148                38.9473                48.7816

                     52                     53                     54
                      A                      A                      A
 Frequencies --   3120.3669              3144.8855              3176.2013
 Red. masses --      1.1006                 1.1048                 1.1111
 Frc consts  --      6.3139                 6.4378                 6.6039
 IR Inten    --     31.0207                15.5983                16.4571

 - Thermochemistry -
 -------------------
 Temperature   298.150 Kelvin.  Pressure   1.00000 Atm.
 Atom     1 has atomic number  6 and mass  12.00000

 Molecular mass:   105.09155 amu.
 Principal axes and moments of inertia in atomic units:
                           1         2         3
     Eigenvalues --   463.968851694.917951919.80998
           X            0.99979   0.01165   0.01682
           Y           -0.01164   0.99993  -0.00034
           Z           -0.01683   0.00015   0.99986
 This molecule is an asymmetric top.
 Rotational symmetry number  1.
 Warning -- assumption of classical behavior for rotation
           may cause significant error
 Rotational temperatures (Kelvin)      0.18668     0.05110     0.04512
 Rotational constants (GHZ):           3.88979     1.06480     0.94006
    1 imaginary frequencies ignored.
 Zero-point vibrational energy     448040.5 (Joules/Mol)
                                  107.08424 (Kcal/Mol)
 Warning -- explicit consideration of  13 degrees of freedom as
           vibrations may cause significant error
 Vibrational temperatures:     26.51    90.36   101.50   136.07   217.39
          (Kelvin)            239.22   347.97   355.16   388.90   613.44
                              667.55   757.36   891.60  1060.87  1186.18
                             1222.25  1313.13  1378.33  1419.52  1491.59
                             1515.86  1545.65  1622.25  1694.41  1710.55
                             1728.16  1752.99  1832.74  1909.17  1941.82
                             2023.58  2048.76  2085.64  2099.82  2110.96
                             2130.20  2131.56  2168.69  2178.70  2185.03
                             2190.10  4293.18  4367.42  4374.49  4381.09
                             4403.40  4447.64  4449.87  4478.00  4483.00
                             4489.51  4524.79  4569.85

 Zero-point correction=                           0.170650 (Hartree/Particle)
 Thermal correction to Energy=                    0.180968
 Thermal correction to Enthalpy=                  0.181912
 Thermal correction to Gibbs Free Energy=         0.132755
 Sum of electronic and zero-point Energies=           -348.303021
 Sum of electronic and thermal Energies=              -348.292702
 Sum of electronic and thermal Enthalpies=            -348.291758
 Sum of electronic and thermal Free Energies=         -348.340915

                     E (Thermal)             CV                S
                      KCal/Mol        Cal/Mol-Kelvin    Cal/Mol-Kelvin
 Total                  113.559             34.446            103.459
 Electronic               0.000              0.000              1.377
 Translational            0.889              2.981             39.866
 Rotational               0.889              2.981             28.803
 Vibrational            111.782             28.484             33.413
 Vibration     1          0.593              1.986              6.797
 Vibration     2          0.597              1.972              4.367
 Vibration     3          0.598              1.968              4.138
 Vibration     4          0.603              1.953              3.563
 Vibration     5          0.619              1.901              2.658
 Vibration     6          0.624              1.884              2.477
 Vibration     7          0.658              1.776              1.789
 Vibration     8          0.661              1.768              1.753
 Vibration     9          0.674              1.728              1.594
 Vibration    10          0.788              1.413              0.871
 Vibration    11          0.822              1.330              0.755
 Vibration    12          0.881              1.192              0.595
 Vibration    13          0.980              0.990              0.417

 Optimization completed on the basis of negligible forces.
    -- Stationary point found.
 Normal termination of Gaussian 16 at Tue Jun 25 14:38:33 2019.
