 Gaussian 16, Revision B.01,
 Gaussian 16:  ES64L-G16RevB.01 20-Dec-2017

 ----------------------------------------------------------------------
 # opt=(calcfc,ts,noeigentest,maxcyc=500) freq=noraman uB2PLYPD3/cc-pvt
 z
 ----------------------------------------------------------------------

 -------------------
 Title Card Required
 -------------------
 Symbolic Z-matrix:
 Charge =  0 Multiplicity = 2

 SCF Done:  E(UB2PLYPD3) =  -307.579929212     A.U. after   21 cycles
 E2(B2PLYPD3) =    -0.3835227040D+00 E(B2PLYPD3) =    -0.30796345191563D+03
 E2(B2PLYPD3) =    -0.3835227040D+00 E(B2PLYPD3) =    -0.30796345191563D+03
 SCF Done:  E(UB2PLYPD3) =  -307.580064724     A.U. after   16 cycles
 E2(B2PLYPD3) =    -0.3839684073D+00 E(B2PLYPD3) =    -0.30796403313128D+03
 SCF Done:  E(UB2PLYPD3) =  -307.580049375     A.U. after   12 cycles
 E2(B2PLYPD3) =    -0.3839914739D+00 E(B2PLYPD3) =    -0.30796404084880D+03
 SCF Done:  E(UB2PLYPD3) =  -307.580056176     A.U. after   10 cycles
 E2(B2PLYPD3) =    -0.3839849368D+00 E(B2PLYPD3) =    -0.30796404111264D+03
 Optimization completed.
    -- Stationary point found.
 Normal termination of Gaussian 16 at Wed Jun 12 12:40:17 2019.

 ----------------------------------------------------------------------
 #N Geom=AllCheck Guess=TCheck SCRF=Check GenChk UB2PLYPD3(FC)/CC-pVTZ
 Freq
 ----------------------------------------------------------------------

 Structure from the checkpoint file:  "/localscratch/347852/Gau-29135.chk"
 -------------------
 Title Card Required
 -------------------
 Charge =  0 Multiplicity = 2

                         Standard orientation:
 ---------------------------------------------------------------------
 Center     Atomic      Atomic             Coordinates (Angstroms)
 Number     Number       Type             X           Y           Z
 ---------------------------------------------------------------------
      1          6           0        1.260568   -1.150295    0.410761
      2          1           0        1.547712   -2.135151    0.057282
      3          1           0        1.374649   -1.020665    1.482364
      4          6           0       -1.787250    1.004814    0.373679
      5          1           0       -1.004992    1.113275    1.123837
      6          1           0       -1.931700    1.945830   -0.152192
      7          1           0       -2.715041    0.684819    0.844122
      8          8           0       -1.395055    0.070228   -0.627413
      9          8           0       -1.237537   -1.173329   -0.019813
     10          1           0       -0.038570   -1.214405    0.228659
     11          6           0        1.656512   -0.029299   -0.410928
     12          6           0        1.890213    1.208808    0.054356
     13          1           0        1.722284   -0.201946   -1.478021
     14          1           0        1.829882    1.429783    1.111685
     15          1           0        2.156255    2.019104   -0.607142
 ---------------------------------------------------------------------

 SCF Done:  E(UB2PLYPD3) =  -307.580056176     A.U. after    1 cycles
 E2(B2PLYPD3) =    -0.3839849413D+00 E(B2PLYPD3) =    -0.30796404111713D+03
 E2(B2PLYPD3) =    -0.3839849413D+00 E(B2PLYPD3) =    -0.30796404111713D+03

 The electronic state is 2-A.
 Alpha  occ. eigenvalues --  -19.78966 -19.78408 -10.65891 -10.63285 -10.63098
 Alpha  occ. eigenvalues --  -10.62565  -1.27958  -1.01310  -0.92591  -0.81111
 Alpha  occ. eigenvalues --   -0.77378  -0.65666  -0.60607  -0.56409  -0.55593
 Alpha  occ. eigenvalues --   -0.54590  -0.51419  -0.49934  -0.46231  -0.44261
 Alpha  occ. eigenvalues --   -0.43078  -0.40014  -0.36300  -0.34864  -0.28255
 Alpha virt. eigenvalues --    0.06444   0.07942   0.10211   0.11295   0.12116
 Alpha virt. eigenvalues --    0.13679   0.15476   0.16054   0.16525   0.18659
 Alpha virt. eigenvalues --    0.20714   0.23642   0.27239   0.28843   0.30164

  Beta  occ. eigenvalues --  -19.78691 -19.76682 -10.65904 -10.63558 -10.62324
  Beta  occ. eigenvalues --  -10.61882  -1.25853  -0.98166  -0.91764  -0.78623
  Beta  occ. eigenvalues --   -0.76679  -0.65169  -0.57420  -0.55674  -0.54365
  Beta  occ. eigenvalues --   -0.54222  -0.50985  -0.47017  -0.45649  -0.43442
  Beta  occ. eigenvalues --   -0.42647  -0.36087  -0.34902  -0.30385
  Beta virt. eigenvalues --   -0.05777   0.07404   0.08254   0.10268   0.11706
  Beta virt. eigenvalues --    0.12441   0.14242   0.15552   0.16148   0.16780
  Beta virt. eigenvalues --    0.18885   0.21506   0.23743   0.28050   0.29545

 Mulliken charges and spin densities:
               1          2
     1  C   -0.300846   0.466480
     2  H    0.124328  -0.012423
     3  H    0.110261  -0.011338
     4  C   -0.057113  -0.007463
     5  H    0.069515   0.004325
     6  H    0.094838  -0.000947
     7  H    0.096785   0.001458
     8  O   -0.177788   0.052726
     9  O   -0.222820   0.452904
    10  H    0.213640  -0.078769
    11  C   -0.052875  -0.265720
    12  C   -0.301675   0.424436
    13  H    0.143586   0.008956
    14  H    0.127848  -0.016174
    15  H    0.132316  -0.018451
 Sum of Mulliken charges =  -0.00000   1.00000

 Dipole moment (field-independent basis, Debye):
    X=              1.3512    Y=              1.4892    Z=              1.1477  Tot=              2.3153
 Quadrupole moment (field-independent basis, Debye-Ang):
   XX=            -38.8858   YY=            -35.8514   ZZ=            -37.2111
   XY=             -3.7231   XZ=             -2.0767   YZ=              0.1322

  Exact polarizability:  99.083   4.647  74.912   1.794  -0.496  51.582
 Approx polarizability:  84.523   7.929  84.901   3.379  -0.156  61.294

 ******    1 imaginary frequencies (negative Signs) ******

                      1                      2                      3
                      A                      A                      A
 Frequencies --  -1981.1947                48.8829                79.2367
 Red. masses --      1.1263                 2.8556                 3.7459
 Frc consts  --      2.6048                 0.0040                 0.0139
 IR Inten    --   2288.9705                 2.3754                 0.0942

                      4                      5                      6
                      A                      A                      A
 Frequencies --    124.0249               141.7878               200.1339
 Red. masses --      3.1570                 1.9677                 1.2145
 Frc consts  --      0.0286                 0.0233                 0.0287
 IR Inten    --      3.8464                 1.0555                 2.3074

                      7                      8                      9
                      A                      A                      A
 Frequencies --    315.0594               417.7727               463.6422
 Red. masses --      2.9248                 1.8634                 2.8234
 Frc consts  --      0.1711                 0.1916                 0.3576
 IR Inten    --      0.9209                 0.8926                 2.8023

                     10                     11                     12
                      A                      A                      A
 Frequencies --    545.3114               549.8363               652.0596
 Red. masses --      1.3843                 3.0253                 1.4089
 Frc consts  --      0.2425                 0.5389                 0.3529
 IR Inten    --      5.0970                 8.4040                26.2311

                     13                     14                     15
                      A                      A                      A
 Frequencies --    930.2730               936.0742               954.6265
 Red. masses --      3.8350                 1.4544                 1.1724
 Frc consts  --      1.9554                 0.7509                 0.6295
 IR Inten    --     14.2911                42.5967                 1.3779

                     16                     17                     18
                      A                      A                      A
 Frequencies --   1000.1167              1028.2098              1048.2278
 Red. masses --      1.8458                 1.1819                 4.8049
 Frc consts  --      1.0877                 0.7362                 3.1106
 IR Inten    --      2.3904                 5.4638                56.9032

                     19                     20                     21
                      A                      A                      A
 Frequencies --   1095.6870              1173.2357              1195.6808
 Red. masses --      1.5773                 1.2693                 1.1208
 Frc consts  --      1.1157                 1.0294                 0.9441
 IR Inten    --     15.8689                 2.9353                11.0119

                     22                     23                     24
                      A                      A                      A
 Frequencies --   1214.0400              1220.7768              1333.3934
 Red. masses --      1.5537                 1.6819                 1.3477
 Frc consts  --      1.3492                 1.4768                 1.4117
 IR Inten    --      5.6349                 0.9736                 1.6764

                     25                     26                     27
                      A                      A                      A
 Frequencies --   1445.6430              1451.0303              1457.0060
 Red. masses --      1.0809                 1.1425                 1.1471
 Frc consts  --      1.3310                 1.4172                 1.4347
 IR Inten    --      5.5097                20.6314                 5.2427

                     28                     29                     30
                      A                      A                      A
 Frequencies --   1482.2889              1501.0211              1511.9021
 Red. masses --      1.0503                 1.2447                 1.0501
 Frc consts  --      1.3597                 1.6522                 1.4142
 IR Inten    --      5.5173                 5.9739                 8.5798

                     31                     32                     33
                      A                      A                      A
 Frequencies --   1648.0277              3047.5408              3107.4210
 Red. masses --      3.3083                 1.0279                 1.0538
 Frc consts  --      5.2940                 5.6249                 5.9953
 IR Inten    --      7.7914                41.2193                10.1394

                     34                     35                     36
                      A                      A                      A
 Frequencies --   3127.0486              3150.8621              3157.7932
 Red. masses --      1.1068                 1.1052                 1.0573
 Frc consts  --      6.3767                 6.4645                 6.2120
 IR Inten    --     31.4503                13.5035                 7.0509

                     37                     38                     39
                      A                      A                      A
 Frequencies --   3172.8397              3195.1012              3253.4685
 Red. masses --      1.0938                 1.1088                 1.1158
 Frc consts  --      6.4874                 6.6690                 6.9586
 IR Inten    --      3.6266                10.8525                 9.0364

 - Thermochemistry -
 -------------------
 Temperature   298.150 Kelvin.  Pressure   1.00000 Atm.
 Atom     1 has atomic number  6 and mass  12.00000

 Molecular mass:    89.06025 amu.
 Principal axes and moments of inertia in atomic units:
                           1         2         3
     Eigenvalues --   379.71400 844.796721081.29028
           X            0.99927  -0.03557  -0.01400
           Y            0.03566   0.99934   0.00633
           Z            0.01377  -0.00682   0.99988
 This molecule is an asymmetric top.
 Rotational symmetry number  1.
 Rotational temperatures (Kelvin)      0.22810     0.10253     0.08010
 Rotational constants (GHZ):           4.75290     2.13630     1.66906
    1 imaginary frequencies ignored.
 Zero-point vibrational energy     313284.5 (Joules/Mol)
                                   74.87680 (Kcal/Mol)
 Warning -- explicit consideration of  10 degrees of freedom as
           vibrations may cause significant error
 Vibrational temperatures:     70.33   114.00   178.44   204.00   287.95
          (Kelvin)            453.30   601.08   667.08   784.58   791.09
                              938.17  1338.46  1346.80  1373.49  1438.94
                             1479.36  1508.17  1576.45  1688.02  1720.32
                             1746.73  1756.43  1918.46  2079.96  2087.71
                             2096.31  2132.68  2159.63  2175.29  2371.14
                             4384.73  4470.89  4499.13  4533.39  4543.36
                             4565.01  4597.04  4681.02

 Zero-point correction=                           0.119324 (Hartree/Particle)
 Thermal correction to Energy=                    0.127516
 Thermal correction to Enthalpy=                  0.128460
 Thermal correction to Gibbs Free Energy=         0.085595
 Sum of electronic and zero-point Energies=           -307.844717
 Sum of electronic and thermal Energies=              -307.836525
 Sum of electronic and thermal Enthalpies=            -307.835581
 Sum of electronic and thermal Free Energies=         -307.878446

                     E (Thermal)             CV                S
                      KCal/Mol        Cal/Mol-Kelvin    Cal/Mol-Kelvin
 Total                   80.018             27.370             90.218
 Electronic               0.000              0.000              1.377
 Translational            0.889              2.981             39.373
 Rotational               0.889              2.981             27.342
 Vibrational             78.240             21.408             22.126
 Vibration     1          0.595              1.978              4.862
 Vibration     2          0.600              1.963              3.910
 Vibration     3          0.610              1.929              3.037
 Vibration     4          0.615              1.911              2.780
 Vibration     5          0.638              1.840              2.132
 Vibration     6          0.702              1.645              1.336
 Vibration     7          0.781              1.432              0.900
 Vibration     8          0.821              1.331              0.756
 Vibration     9          0.900              1.150              0.554
 Vibration    10          0.905              1.140              0.545

                           ! Non-Optimized Parameters !

 1\1\GINC-N104\Freq\UB2PLYPD3-FC\CC-pVTZ\C4H9O2(2)\ROOT\12-Jun-2019\0\\
 #N Geom=AllCheck Guess=TCheck SCRF=Check GenChk UB2PLYPD3(FC)/CC-pVTZ
 Freq\\Title Card Required\\0,2\C,-1.2365482531,-1.1807993515,-0.415650
 1282\H,-1.4934512536,-2.1754141071,-0.0662464417\H,-1.3646496675,-1.04
 71674549,-1.4851751173\C,1.7520802429,1.0558617004,-0.3931075322\H,0.9
 598199051,1.1480727325,-1.134895008\H,1.8762007943,1.996921287,0.13785
 28544\H,2.6835058385,0.7642851957,-0.874707971\O,1.3951924642,0.104330
 4787,0.6052282636\O,1.2653878356,-1.1389602251,-0.0094269105\H,0.06557

 Normal termination of Gaussian 16 at Wed Jun 12 13:37:54 2019.
