 Gaussian 16, Revision B.01,
 Gaussian 16:  ES64L-G16RevB.01 20-Dec-2017

 ----------------------------------------------------------------------
 # opt=(calcfc,ts,noeigentest,maxcyc=500,modredundant) uB2PLYPD3/cc-pvt
 z scf=maxcyc=500 nosymm
 ----------------------------------------------------------------------

 -------------------
 Title Card Required
 -------------------
 Symbolic Z-matrix:
 Charge =  0 Multiplicity = 2

 SCF Done:  E(UB2PLYPD3) =  -230.321143600     A.U. after   19 cycles
 E2(B2PLYPD3) =    -0.2777727096D+00 E(B2PLYPD3) =    -0.23059891630972D+03
 E2(B2PLYPD3) =    -0.2777727096D+00 E(B2PLYPD3) =    -0.23059891630972D+03

  Exact polarizability:  72.660  -5.023  38.262  -0.168   1.257  33.531
 Approx polarizability:  55.995  -3.188  42.053   2.401   2.114  38.528

 Optimization completed.
    -- Stationary point found.
 SCF Done:  E(UB2PLYPD3) =  -230.320584644     A.U. after   15 cycles
 E2(B2PLYPD3) =    -0.2780211415D+00 E(B2PLYPD3) =    -0.23059860578585D+03
 SCF Done:  E(UB2PLYPD3) =  -230.320760240     A.U. after   14 cycles
 E2(B2PLYPD3) =    -0.2778793052D+00 E(B2PLYPD3) =    -0.23059863954526D+03
 SCF Done:  E(UB2PLYPD3) =  -230.320756049     A.U. after   12 cycles
 E2(B2PLYPD3) =    -0.2778835611D+00 E(B2PLYPD3) =    -0.23059863960982D+03
 SCF Done:  E(UB2PLYPD3) =  -230.320753754     A.U. after   11 cycles
 E2(B2PLYPD3) =    -0.2778862490D+00 E(B2PLYPD3) =    -0.23059864000312D+03
 Optimization completed.
 SCF Done:  E(UB2PLYPD3) =  -230.319519935     A.U. after   14 cycles
 E2(B2PLYPD3) =    -0.2781404428D+00 E(B2PLYPD3) =    -0.23059766037787D+03
 SCF Done:  E(UB2PLYPD3) =  -230.319750990     A.U. after   14 cycles
 E2(B2PLYPD3) =    -0.2779937264D+00 E(B2PLYPD3) =    -0.23059774471606D+03
 SCF Done:  E(UB2PLYPD3) =  -230.319733737     A.U. after   12 cycles
 E2(B2PLYPD3) =    -0.2780120156D+00 E(B2PLYPD3) =    -0.23059774575239D+03
 SCF Done:  E(UB2PLYPD3) =  -230.319709502     A.U. after   12 cycles
 E2(B2PLYPD3) =    -0.2780412932D+00 E(B2PLYPD3) =    -0.23059775079523D+03
 SCF Done:  E(UB2PLYPD3) =  -230.319714576     A.U. after   10 cycles
 E2(B2PLYPD3) =    -0.2780362878D+00 E(B2PLYPD3) =    -0.23059775086395D+03
 E2(B2PLYPD3) =    -0.2780376316D+00 E(B2PLYPD3) =    -0.23059775087179D+03
 E2(B2PLYPD3) =    -0.2782716452D+00 E(B2PLYPD3) =    -0.23059604138860D+03
 E2(B2PLYPD3) =    -0.2781185170D+00 E(B2PLYPD3) =    -0.23059620706990D+03
 E2(B2PLYPD3) =    -0.2785917979D+00 E(B2PLYPD3) =    -0.23059559529600D+03
 E2(B2PLYPD3) =    -0.2777981813D+00 E(B2PLYPD3) =    -0.23059515126186D+03
 E2(B2PLYPD3) =    -0.2780444211D+00 E(B2PLYPD3) =    -0.23059595659872D+03
 E2(B2PLYPD3) =    -0.2782343375D+00 E(B2PLYPD3) =    -0.23059621145254D+03
 E2(B2PLYPD3) =    -0.2781851738D+00 E(B2PLYPD3) =    -0.23059623017473D+03
 E2(B2PLYPD3) =    -0.2782025665D+00 E(B2PLYPD3) =    -0.23059623220037D+03
 E2(B2PLYPD3) =    -0.2776889138D+00 E(B2PLYPD3) =    -0.23059798601827D+03
 E2(B2PLYPD3) =    -0.2776758711D+00 E(B2PLYPD3) =    -0.23059799673689D+03
 E2(B2PLYPD3) =    -0.2776756741D+00 E(B2PLYPD3) =    -0.23059799679055D+03
 E2(B2PLYPD3) =    -0.2778497807D+00 E(B2PLYPD3) =    -0.23059787189474D+03
 E2(B2PLYPD3) =    -0.2776976816D+00 E(B2PLYPD3) =    -0.23059798747824D+03
 E2(B2PLYPD3) =    -0.2776818884D+00 E(B2PLYPD3) =    -0.23059799389584D+03
 E2(B2PLYPD3) =    -0.2776797855D+00 E(B2PLYPD3) =    -0.23059799621710D+03
 E2(B2PLYPD3) =    -0.2776776066D+00 E(B2PLYPD3) =    -0.23059799676628D+03
 E2(B2PLYPD3) =    -0.2776766127D+00 E(B2PLYPD3) =    -0.23059799679186D+03
 E2(B2PLYPD3) =    -0.2779456337D+00 E(B2PLYPD3) =    -0.23059866036183D+03
 SCF Done:  E(UB2PLYPD3) =  -230.320969185     A.U. after   14 cycles
 E2(B2PLYPD3) =    -0.2777024872D+00 E(B2PLYPD3) =    -0.23059867167171D+03
 SCF Done:  E(UB2PLYPD3) =  -230.320978002     A.U. after   12 cycles
 E2(B2PLYPD3) =    -0.2776944043D+00 E(B2PLYPD3) =    -0.23059867240672D+03
 SCF Done:  E(UB2PLYPD3) =  -230.320967924     A.U. after   11 cycles
 E2(B2PLYPD3) =    -0.2777048055D+00 E(B2PLYPD3) =    -0.23059867272953D+03
 SCF Done:  E(UB2PLYPD3) =  -230.320966896     A.U. after   11 cycles
 E2(B2PLYPD3) =    -0.2777058788D+00 E(B2PLYPD3) =    -0.23059867277438D+03
 SCF Done:  E(UB2PLYPD3) =  -230.320967513     A.U. after    8 cycles
 E2(B2PLYPD3) =    -0.2777052625D+00 E(B2PLYPD3) =    -0.23059867277545D+03
    -- Stationary point found.
 SCF Done:  E(UB2PLYPD3) =  -230.320942535     A.U. after   14 cycles
 E2(B2PLYPD3) =    -0.2779549525D+00 E(B2PLYPD3) =    -0.23059889748732D+03
 SCF Done:  E(UB2PLYPD3) =  -230.321137873     A.U. after   14 cycles
 E2(B2PLYPD3) =    -0.2777769633D+00 E(B2PLYPD3) =    -0.23059891483595D+03
 SCF Done:  E(UB2PLYPD3) =  -230.321136186     A.U. after   11 cycles
 E2(B2PLYPD3) =    -0.2777798206D+00 E(B2PLYPD3) =    -0.23059891600631D+03
 SCF Done:  E(UB2PLYPD3) =  -230.321147935     A.U. after   11 cycles
 E2(B2PLYPD3) =    -0.2777681358D+00 E(B2PLYPD3) =    -0.23059891607056D+03
 SCF Done:  E(UB2PLYPD3) =  -230.321142968     A.U. after    9 cycles
 E2(B2PLYPD3) =    -0.2777731674D+00 E(B2PLYPD3) =    -0.23059891613504D+03
 Optimization completed on the basis of negligible forces.
    -- Stationary point found.

                          Input orientation:
 ---------------------------------------------------------------------
 Center     Atomic      Atomic             Coordinates (Angstroms)
 Number     Number       Type             X           Y           Z
 ---------------------------------------------------------------------
      1          6           0        1.309789    0.693151    0.836329
      2          1           0        0.895130    1.486262    0.211612
      3          1           0        1.547875    1.085970    1.822609
      4          1           0        2.202724    0.282793    0.368121
      5          8           0        0.347961   -0.326321    1.064055
      6          8           0        0.074261   -0.941584   -0.173973
      7          6           0       -1.904432    0.371560   -1.044368
      8          1           0       -2.545298   -0.397094   -1.455433
      9          1           0       -2.246292    0.813417   -0.117196
     10          1           0       -0.812953   -0.362369   -0.583898
     11          1           0       -1.488840    1.061869   -1.765908
 ---------------------------------------------------------------------

 Alpha  occ. eigenvalues --  -19.78660 -19.78639 -10.66119 -10.64075  -1.27549
 Alpha  occ. eigenvalues --   -1.02395  -0.83017  -0.77568  -0.61115  -0.55882
 Alpha  occ. eigenvalues --   -0.54583  -0.50331  -0.49975  -0.49800  -0.44180
 Alpha  occ. eigenvalues --   -0.37846  -0.36838  -0.31393
 Alpha virt. eigenvalues --    0.07343   0.10550   0.12803   0.14258   0.15164
 Alpha virt. eigenvalues --    0.15561   0.16751   0.20200   0.26921   0.28086
 Alpha virt. eigenvalues --    0.28502   0.31346   0.32715   0.36262   0.44605

  Beta  occ. eigenvalues --  -19.78529 -19.77132 -10.66126 -10.62742  -1.25766
  Beta  occ. eigenvalues --   -0.99672  -0.79108  -0.76750  -0.57803  -0.54675
  Beta  occ. eigenvalues --   -0.54278  -0.49309  -0.49112  -0.46630  -0.43343
  Beta  occ. eigenvalues --   -0.35717  -0.33951
  Beta virt. eigenvalues --   -0.05327   0.07663   0.10811   0.13464   0.14476
  Beta virt. eigenvalues --    0.15413   0.15706   0.16880   0.21007   0.28294
  Beta virt. eigenvalues --    0.28360   0.29554   0.31743   0.32843   0.37337

 Mulliken charges and spin densities:
               1          2
     1  C   -0.043579  -0.002853
     2  H    0.063717   0.000376
     3  H    0.094170  -0.000798
     4  H    0.084349   0.002245
     5  O   -0.189246   0.023452
     6  O   -0.223372   0.386868
     7  C   -0.377657   0.720672
     8  H    0.128075  -0.015274
     9  H    0.126002  -0.015525
    10  H    0.220431  -0.083926
    11  H    0.117109  -0.015239
 Sum of Mulliken charges =  -0.00000   1.00000

 Dipole moment (field-independent basis, Debye):
    X=             -0.3740    Y=              2.2409    Z=             -0.8017  Tot=              2.4092
 Quadrupole moment (field-independent basis, Debye-Ang):
   XX=            -22.1219   YY=            -27.0064   ZZ=            -25.7420
   XY=              1.2400   XZ=              2.4021   YZ=              1.1598

 Normal termination of Gaussian 16 at Thu Jun 13 03:21:56 2019.
