 Gaussian 16, Revision B.01,
 Gaussian 16:  ES64L-G16RevB.01 20-Dec-2017

 ----------------------------------------------------------------------
 # opt=(calcfc,ts,noeigentest,maxcyc=500) freq=noraman uB2PLYPD3/cc-pvt
 z
 ----------------------------------------------------------------------

 -------------------
 Title Card Required
 -------------------
 Symbolic Z-matrix:
 Charge =  0 Multiplicity = 2

 SCF Done:  E(UB2PLYPD3) =  -307.564479216     A.U. after   23 cycles
 E2(B2PLYPD3) =    -0.3816552089D+00 E(B2PLYPD3) =    -0.30794613442500D+03
 E2(B2PLYPD3) =    -0.3816552089D+00 E(B2PLYPD3) =    -0.30794613442500D+03
 SCF Done:  E(UB2PLYPD3) =  -307.564721492     A.U. after   18 cycles
 E2(B2PLYPD3) =    -0.3820093985D+00 E(B2PLYPD3) =    -0.30794673089087D+03
 SCF Done:  E(UB2PLYPD3) =  -307.564694820     A.U. after   13 cycles
 E2(B2PLYPD3) =    -0.3820529897D+00 E(B2PLYPD3) =    -0.30794674780994D+03
 SCF Done:  E(UB2PLYPD3) =  -307.564682218     A.U. after   14 cycles
 E2(B2PLYPD3) =    -0.3820707524D+00 E(B2PLYPD3) =    -0.30794675296988D+03
 SCF Done:  E(UB2PLYPD3) =  -307.564681666     A.U. after   11 cycles
 E2(B2PLYPD3) =    -0.3820717268D+00 E(B2PLYPD3) =    -0.30794675339280D+03
 Optimization completed.
    -- Stationary point found.
 Normal termination of Gaussian 16 at Fri Jun  7 08:22:49 2019.

 ----------------------------------------------------------------------
 #N Geom=AllCheck Guess=TCheck SCRF=Check GenChk UB2PLYPD3(FC)/CC-pVTZ
 Freq
 ----------------------------------------------------------------------

 Structure from the checkpoint file:  "/localscratch/341085/Gau-39329.chk"
 -------------------
 Title Card Required
 -------------------
 Charge =  0 Multiplicity = 2

                         Standard orientation:
 ---------------------------------------------------------------------
 Center     Atomic      Atomic             Coordinates (Angstroms)
 Number     Number       Type             X           Y           Z
 ---------------------------------------------------------------------
      1          6           0        1.125098    1.228732   -0.213192
      2          6           0        2.023058    0.280468   -0.348035
      3          1           0        1.113138    2.260686   -0.530122
      4          6           0       -2.185751   -0.234326   -0.805602
      5          1           0       -1.548219    0.260646   -1.540466
      6          1           0       -2.543964   -1.181201   -1.204672
      7          1           0       -3.025806    0.408583   -0.547989
      8          8           0       -1.442604   -0.577097    0.353478
      9          8           0       -1.038888    0.628931    0.977999
     10          1           0       -0.089255    0.888155    0.476866
     11          6           0        1.918735   -1.127879    0.155673
     12          1           0        0.961721   -1.307198    0.635471
     13          1           0        2.034856   -1.833326   -0.667542
     14          1           0        2.719052   -1.331822    0.867543
     15          1           0        2.943575    0.538834   -0.873966
 ---------------------------------------------------------------------

 SCF Done:  E(UB2PLYPD3) =  -307.564681666     A.U. after    1 cycles
 E2(B2PLYPD3) =    -0.3820717386D+00 E(B2PLYPD3) =    -0.30794675340457D+03
 E2(B2PLYPD3) =    -0.3820717386D+00 E(B2PLYPD3) =    -0.30794675340457D+03

 The electronic state is 2-A.
 Alpha  occ. eigenvalues --  -19.78429 -19.78242 -10.65876 -10.64564 -10.63895
 Alpha  occ. eigenvalues --  -10.61479  -1.27082  -1.02497  -0.92447  -0.80827
 Alpha  occ. eigenvalues --   -0.77566  -0.66282  -0.60102  -0.56544  -0.55350
 Alpha  occ. eigenvalues --   -0.54263  -0.50146  -0.48621  -0.47105  -0.44983
 Alpha  occ. eigenvalues --   -0.43797  -0.37325  -0.36372  -0.33059  -0.31033
 Alpha virt. eigenvalues --    0.05573   0.08105   0.10181   0.11019   0.13054
 Alpha virt. eigenvalues --    0.13699   0.15180   0.15257   0.16807   0.18925
 Alpha virt. eigenvalues --    0.20075   0.23619   0.25835   0.28359   0.30106

  Beta  occ. eigenvalues --  -19.78334 -19.76922 -10.65881 -10.64144 -10.62956
  Beta  occ. eigenvalues --  -10.61392  -1.25529  -1.00114  -0.91245  -0.79140
  Beta  occ. eigenvalues --   -0.77178  -0.63411  -0.57593  -0.55609  -0.54357
  Beta  occ. eigenvalues --   -0.53853  -0.48829  -0.47719  -0.45398  -0.44410
  Beta  occ. eigenvalues --   -0.43054  -0.35913  -0.33802  -0.32008
  Beta virt. eigenvalues --   -0.05460   0.06189   0.08414   0.10295   0.11311
  Beta virt. eigenvalues --    0.13621   0.14066   0.15205   0.15287   0.16941
  Beta virt. eigenvalues --    0.19552   0.20241   0.23993   0.26283   0.28537

 Mulliken charges and spin densities:
               1          2
     1  C   -0.285555   0.772530
     2  C   -0.088713  -0.151736
     3  H    0.157932   0.024484
     4  C   -0.051117  -0.001620
     5  H    0.068839  -0.000277
     6  H    0.093545  -0.000629
     7  H    0.088848   0.001859
     8  O   -0.193197   0.017705
     9  O   -0.227454   0.331714
    10  H    0.228616  -0.071335
    11  C   -0.266199   0.026762
    12  H    0.129267   0.001025
    13  H    0.098286  -0.004707
    14  H    0.103922  -0.004234
    15  H    0.142979   0.058459
 Sum of Mulliken charges =   0.00000   1.00000

 Dipole moment (field-independent basis, Debye):
    X=              1.2591    Y=              0.1723    Z=             -2.3675  Tot=              2.6870
 Quadrupole moment (field-independent basis, Debye-Ang):
   XX=            -33.1965   YY=            -36.3557   ZZ=            -39.8408
   XY=              0.2439   XZ=              2.6970   YZ=             -0.6733

  Exact polarizability:  93.339   1.570  64.767  -4.432  -0.561  50.200
 Approx polarizability:  79.477  -1.746  74.103  -5.354   1.376  59.194

 ******    1 imaginary frequencies (negative Signs) ******

                      1                      2                      3
                      A                      A                      A
 Frequencies --  -1510.2866                29.2922                73.1972
 Red. masses --      1.1593                 3.2487                 2.8130
 Frc consts  --      1.5581                 0.0016                 0.0089
 IR Inten    --   1476.1015                 2.3859                 1.5930

                      4                      5                      6
                      A                      A                      A
 Frequencies --    104.2723               142.6519               177.1399
 Red. masses --      2.8421                 1.4032                 1.5369
 Frc consts  --      0.0182                 0.0168                 0.0284
 IR Inten    --      2.9538                 0.9833                 0.4776

                      7                      8                      9
                      A                      A                      A
 Frequencies --    242.0662               283.7069               464.7215
 Red. masses --      1.5516                 2.4778                 3.2926
 Frc consts  --      0.0536                 0.1175                 0.4190
 IR Inten    --      0.7862                 1.0944                 7.1059

                     10                     11                     12
                      A                      A                      A
 Frequencies --    466.8431               574.5751               626.0556
 Red. masses --      3.0275                 2.6681                 1.1421
 Frc consts  --      0.3888                 0.5190                 0.2637
 IR Inten    --      5.9279                25.5929                42.5959

                     13                     14                     15
                      A                      A                      A
 Frequencies --    820.9923               887.8290               912.1110
 Red. masses --      1.1944                 1.6021                 2.5757
 Frc consts  --      0.4743                 0.7441                 1.2625
 IR Inten    --      5.3373                26.8096                 0.1573

                     16                     17                     18
                      A                      A                      A
 Frequencies --    930.6114              1000.6409              1060.7765
 Red. masses --      2.2124                 1.1573                 6.4463
 Frc consts  --      1.1289                 0.6828                 4.2737
 IR Inten    --     13.4107                12.3077                25.1120

                     19                     20                     21
                      A                      A                      A
 Frequencies --   1078.1420              1178.4215              1182.2314
 Red. masses --      1.5017                 1.2711                 1.6847
 Frc consts  --      1.0284                 1.0400                 1.3873
 IR Inten    --      2.2302                 1.7925                 0.6476

                     22                     23                     24
                      A                      A                      A
 Frequencies --   1217.9184              1316.9589              1421.5197
 Red. masses --      1.5790                 1.3181                 1.2170
 Frc consts  --      1.3800                 1.3469                 1.4489
 IR Inten    --      4.9419                11.1826                 5.3752

                     25                     26                     27
                      A                      A                      A
 Frequencies --   1437.7168              1457.9592              1481.2629
 Red. masses --      1.0975                 1.1452                 1.0509
 Frc consts  --      1.3366                 1.4342                 1.3586
 IR Inten    --      9.2243                 4.1762                 7.7655

                     28                     29                     30
                      A                      A                      A
 Frequencies --   1497.9796              1502.6763              1518.5836
 Red. masses --      1.0488                 1.0561                 1.0510
 Frc consts  --      1.3866                 1.4050                 1.4280
 IR Inten    --      8.2830                 8.1595                 9.3208

                     31                     32                     33
                      A                      A                      A
 Frequencies --   1706.5403              3033.6190              3052.5935
 Red. masses --      6.1285                 1.0312                 1.0384
 Frc consts  --     10.5157                 5.5915                 5.7008
 IR Inten    --      5.3025                34.3131                21.4541

                     34                     35                     36
                      A                      A                      A
 Frequencies --   3071.3510              3105.7128              3111.2806
 Red. masses --      1.0818                 1.0998                 1.1030
 Frc consts  --      6.0125                 6.2499                 6.2910
 IR Inten    --      7.6016                14.2849                42.7300

                     37                     38                     39
                      A                      A                      A
 Frequencies --   3143.9907              3165.9652              3222.6124
 Red. masses --      1.1047                 1.1002                 1.0994
 Frc consts  --      6.4337                 6.4974                 6.7269
 IR Inten    --     14.8702                 2.4150                 0.1255

 - Thermochemistry -
 -------------------
 Temperature   298.150 Kelvin.  Pressure   1.00000 Atm.
 Atom     1 has atomic number  6 and mass  12.00000

 Molecular mass:    89.06025 amu.
 Principal axes and moments of inertia in atomic units:
                           1         2         3
     Eigenvalues --   341.108101040.253061137.68700
           X            0.99958  -0.01525   0.02471
           Y            0.01636   0.99885  -0.04505
           Z           -0.02399   0.04543   0.99868
 This molecule is an asymmetric top.
 Rotational symmetry number  1.
 Rotational temperatures (Kelvin)      0.25392     0.08326     0.07613
 Rotational constants (GHZ):           5.29082     1.73491     1.58632
    1 imaginary frequencies ignored.
 Zero-point vibrational energy     309249.7 (Joules/Mol)
                                   73.91246 (Kcal/Mol)
 Warning -- explicit consideration of  10 degrees of freedom as
           vibrations may cause significant error
 Vibrational temperatures:     42.14   105.31   150.02   205.24   254.86
          (Kelvin)            348.28   408.19   668.63   671.68   826.69
                              900.75  1181.22  1277.39  1312.32  1338.94
                             1439.70  1526.22  1551.21  1695.49  1700.97
                             1752.31  1894.81  2045.25  2068.55  2097.68
                             2131.21  2155.26  2162.02  2184.90  2455.33
                             4364.70  4392.00  4418.99  4468.43  4476.44
                             4523.50  4555.12  4636.62

 Zero-point correction=                           0.117787 (Hartree/Particle)
 Thermal correction to Energy=                    0.126451
 Thermal correction to Enthalpy=                  0.127396
 Thermal correction to Gibbs Free Energy=         0.082988
 Sum of electronic and zero-point Energies=           -307.828966
 Sum of electronic and thermal Energies=              -307.820302
 Sum of electronic and thermal Enthalpies=            -307.819358
 Sum of electronic and thermal Free Energies=         -307.863766

                     E (Thermal)             CV                S
                      KCal/Mol        Cal/Mol-Kelvin    Cal/Mol-Kelvin
 Total                   79.349             28.286             93.464
 Electronic               0.000              0.000              1.377
 Translational            0.889              2.981             39.373
 Rotational               0.889              2.981             27.492
 Vibrational             77.572             22.324             25.222
 Vibration     1          0.593              1.984              5.877
 Vibration     2          0.599              1.967              4.065
 Vibration     3          0.605              1.946              3.373
 Vibration     4          0.616              1.911              2.768
 Vibration     5          0.628              1.870              2.358
 Vibration     6          0.658              1.776              1.788
 Vibration     7          0.682              1.704              1.511
 Vibration     8          0.822              1.328              0.752
 Vibration     9          0.824              1.324              0.746
 Vibration    10          0.931              1.086              0.496

 Optimization completed.
    -- Stationary point found.
 Normal termination of Gaussian 16 at Fri Jun  7 09:18:42 2019.
