 Gaussian 16, Revision B.01,
 Gaussian 16:  ES64L-G16RevB.01 20-Dec-2017

 ----------------------------------------------------------------------
 # opt=(calcfc,ts,noeigentest,maxcyc=500) freq=noraman uB2PLYPD3/cc-pvt
 z
 ----------------------------------------------------------------------

 -------------------
 Title Card Required
 -------------------
 Symbolic Z-matrix:
 Charge =  0 Multiplicity = 2

 SCF Done:  E(UB2PLYPD3) =  -348.028721598     A.U. after   19 cycles
 E2(B2PLYPD3) =    -0.4497914415D+00 E(B2PLYPD3) =    -0.34847851303935D+03
 E2(B2PLYPD3) =    -0.4497914415D+00 E(B2PLYPD3) =    -0.34847851303935D+03
 SCF Done:  E(UB2PLYPD3) =  -348.028844534     A.U. after   14 cycles
 E2(B2PLYPD3) =    -0.4502598409D+00 E(B2PLYPD3) =    -0.34847910437517D+03
 SCF Done:  E(UB2PLYPD3) =  -348.028835873     A.U. after   12 cycles
 E2(B2PLYPD3) =    -0.4502813412D+00 E(B2PLYPD3) =    -0.34847911721451D+03
 SCF Done:  E(UB2PLYPD3) =  -348.028850314     A.U. after   12 cycles
 E2(B2PLYPD3) =    -0.4502688111D+00 E(B2PLYPD3) =    -0.34847911912550D+03
 SCF Done:  E(UB2PLYPD3) =  -348.028858297     A.U. after   12 cycles
 E2(B2PLYPD3) =    -0.4502614057D+00 E(B2PLYPD3) =    -0.34847911970269D+03
 SCF Done:  E(UB2PLYPD3) =  -348.028857190     A.U. after   11 cycles
 E2(B2PLYPD3) =    -0.4502626533D+00 E(B2PLYPD3) =    -0.34847911984336D+03
 SCF Done:  E(UB2PLYPD3) =  -348.028855752     A.U. after   10 cycles
 E2(B2PLYPD3) =    -0.4502641111D+00 E(B2PLYPD3) =    -0.34847911986335D+03
 Optimization completed.
    -- Stationary point found.
 Normal termination of Gaussian 16 at Sat Jun  8 04:43:17 2019.

 ----------------------------------------------------------------------
 #N Geom=AllCheck Guess=TCheck SCRF=Check GenChk UB2PLYPD3(FC)/CC-pVTZ
 Freq
 ----------------------------------------------------------------------

 Structure from the checkpoint file:  "/localscratch/341085/Gau-26384.chk"
 -------------------
 Title Card Required
 -------------------
 Charge =  0 Multiplicity = 2

                         Standard orientation:
 ---------------------------------------------------------------------
 Center     Atomic      Atomic             Coordinates (Angstroms)
 Number     Number       Type             X           Y           Z
 ---------------------------------------------------------------------
      1          6           0        1.767868   -0.129539    0.569952
      2          1           0        1.166816   -0.293293    1.467285
      3          6           0        1.015299    0.766504   -0.378128
      4          1           0        1.507364    0.886861   -1.343242
      5          6           0       -2.242417   -0.671612    0.862650
      6          1           0       -1.352887   -0.619493    1.492247
      7          1           0       -3.085785   -0.214263    1.376166
      8          1           0       -2.465019   -1.710506    0.624783
      9          8           0       -2.070238    0.087977   -0.324664
     10          8           0       -1.045742   -0.517544   -1.078859
     11          1           0       -0.059420    0.071038   -0.766940
     12          1           0        2.667524    0.400688    0.906696
     13          6           0        0.440191    2.038348    0.178363
     14          1           0       -0.174931    2.555373   -0.555046
     15          1           0       -0.174329    1.843690    1.056967
     16          1           0        1.242009    2.718844    0.483557
     17          6           0        2.163423   -1.467294   -0.047647
     18          1           0        2.790778   -1.318487   -0.926491
     19          1           0        2.719809   -2.080008    0.659690
     20          1           0        1.279717   -2.022350   -0.358627
 ---------------------------------------------------------------------

 SCF Done:  E(UB2PLYPD3) =  -348.028855752     A.U. after    1 cycles
 E2(B2PLYPD3) =    -0.4502641107D+00 E(B2PLYPD3) =    -0.34847911986291D+03
 E2(B2PLYPD3) =    -0.4502641107D+00 E(B2PLYPD3) =    -0.34847911986291D+03

 The electronic state is 2-A.
 Alpha  occ. eigenvalues --  -19.78344 -19.78093 -10.65933 -10.63764 -10.61996
 Alpha  occ. eigenvalues --  -10.61034 -10.60391  -1.26970  -1.01662  -0.93143
 Alpha  occ. eigenvalues --   -0.84793  -0.77538  -0.74198  -0.68297  -0.60554
 Alpha  occ. eigenvalues --   -0.55645  -0.54407  -0.53683  -0.51164  -0.50375
 Alpha  occ. eigenvalues --   -0.49338  -0.47476  -0.44366  -0.43874  -0.42127
 Alpha  occ. eigenvalues --   -0.40868  -0.40283  -0.36373  -0.36093  -0.28883
 Alpha virt. eigenvalues --    0.07284   0.09153   0.09612   0.11454   0.13421
 Alpha virt. eigenvalues --    0.13899   0.14258   0.15397   0.15946   0.16863
 Alpha virt. eigenvalues --    0.17442   0.17660   0.20297   0.21928   0.23498

  Beta  occ. eigenvalues --  -19.78195 -19.76401 -10.65943 -10.62564 -10.62049
  Beta  occ. eigenvalues --  -10.61089 -10.60376  -1.25052  -0.98635  -0.91659
  Beta  occ. eigenvalues --   -0.84294  -0.77117  -0.73611  -0.66211  -0.57430
  Beta  occ. eigenvalues --   -0.54713  -0.53961  -0.52658  -0.50628  -0.49850
  Beta  occ. eigenvalues --   -0.48097  -0.44535  -0.43958  -0.42905  -0.41565
  Beta  occ. eigenvalues --   -0.40590  -0.39899  -0.34991  -0.32877
  Beta virt. eigenvalues --   -0.03839   0.07359   0.09261   0.09714   0.11571
  Beta virt. eigenvalues --    0.13942   0.14039   0.14520   0.15587   0.16058
  Beta virt. eigenvalues --    0.17024   0.17572   0.17839   0.20491   0.22295

 Mulliken charges and spin densities:
               1          2
     1  C   -0.158740  -0.027592
     2  H    0.096068   0.005017
     3  C   -0.160501   0.580847
     4  H    0.118516  -0.007449
     5  C   -0.067294  -0.004520
     6  H    0.064275   0.002333
     7  H    0.100863  -0.001100
     8  H    0.094278   0.001781
     9  O   -0.190762   0.025506
    10  O   -0.229570   0.433514
    11  H    0.211338  -0.069715
    12  H    0.099998   0.036178
    13  C   -0.294887  -0.029295
    14  H    0.121049   0.004012
    15  H    0.099378   0.005687
    16  H    0.101724   0.041029
    17  C   -0.309251   0.004606
    18  H    0.093040  -0.000456
    19  H    0.102483  -0.000982
    20  H    0.107993   0.000599
 Sum of Mulliken charges =  -0.00000   1.00000

 Dipole moment (field-independent basis, Debye):
    X=              1.4562    Y=              0.2757    Z=              2.0803  Tot=              2.5542
 Quadrupole moment (field-independent basis, Debye-Ang):
   XX=            -45.1060   YY=            -45.5586   ZZ=            -46.7366
   XY=              1.8742   XZ=             -4.7302   YZ=             -1.5537

  Exact polarizability: 103.836   8.607  79.373  -1.201   1.604  67.872
 Approx polarizability:  96.587   5.697  80.817  -0.227   3.348  80.683

 ******    1 imaginary frequencies (negative Signs) ******

                      1                      2                      3
                      A                      A                      A
 Frequencies --  -1875.7147                18.9239                78.2173
 Red. masses --      1.1092                 3.3223                 2.8809
 Frc consts  --      2.2992                 0.0007                 0.0104
 IR Inten    --   1767.4011                 2.2390                 1.5737

                      4                      5                      6
                      A                      A                      A
 Frequencies --     92.8770               116.1344               138.1913
 Red. masses --      2.7280                 1.9114                 2.1351
 Frc consts  --      0.0139                 0.0152                 0.0240
 IR Inten    --      1.1670                 0.3952                 3.1281

                      7                      8                      9
                      A                      A                      A
 Frequencies --    170.4095               211.1498               240.4201
 Red. masses --      1.1471                 1.3173                 1.2650
 Frc consts  --      0.0196                 0.0346                 0.0431
 IR Inten    --      0.2615                 2.9470                 0.1352

                     10                     11                     12
                      A                      A                      A
 Frequencies --    276.8248               337.8122               428.3675
 Red. masses --      2.0822                 2.6340                 2.8104
 Frc consts  --      0.0940                 0.1771                 0.3038
 IR Inten    --      0.5130                 0.4284                 0.4577

                     13                     14                     15
                      A                      A                      A
 Frequencies --    463.2844               531.5159               762.7417
 Red. masses --      3.5424                 3.6554                 1.1138
 Frc consts  --      0.4480                 0.6084                 0.3818
 IR Inten    --      3.7902                 2.2633                 9.6647

                     16                     17                     18
                      A                      A                      A
 Frequencies --    842.6010               865.6185               919.0423
 Red. masses --      1.2933                 1.7126                 4.2498
 Frc consts  --      0.5410                 0.7561                 2.1149
 IR Inten    --      2.9499                 1.8432                14.9022

                     19                     20                     21
                      A                      A                      A
 Frequencies --    973.0897               996.4584              1039.1027
 Red. masses --      1.1591                 1.2422                 3.0837
 Frc consts  --      0.6467                 0.7267                 1.9617
 IR Inten    --      1.6814                 5.8609                 0.7795

                     22                     23                     24
                      A                      A                      A
 Frequencies --   1054.6974              1105.4471              1141.7178
 Red. masses --      7.3088                 1.7209                 1.5223
 Frc consts  --      4.7902                 1.2390                 1.1691
 IR Inten    --     36.9757                 9.1150                 6.6247

                     25                     26                     27
                      A                      A                      A
 Frequencies --   1177.2985              1197.5956              1205.3823
 Red. masses --      1.2833                 1.9974                 1.5237
 Frc consts  --      1.0480                 1.6879                 1.3044
 IR Inten    --      3.5934                 0.8498                 9.7764

                     28                     29                     30
                      A                      A                      A
 Frequencies --   1217.5588              1297.1340              1323.7663
 Red. masses --      1.5870                 1.2113                 1.3243
 Frc consts  --      1.3861                 1.2008                 1.3673
 IR Inten    --      1.9501                 3.7462                 7.0555

                     31                     32                     33
                      A                      A                      A
 Frequencies --   1400.2155              1415.7329              1424.7023
 Red. masses --      1.4597                 1.2674                 1.2318
 Frc consts  --      1.6862                 1.4967                 1.4732
 IR Inten    --      1.5044                 7.3392                 5.9347

                     34                     35                     36
                      A                      A                      A
 Frequencies --   1456.0800              1460.9077              1480.4436
 Red. masses --      1.1331                 1.1115                 1.0552
 Frc consts  --      1.4155                 1.3977                 1.3626
 IR Inten    --      1.2693                 5.4889                 4.9018

                     37                     38                     39
                      A                      A                      A
 Frequencies --   1486.9015              1494.9600              1497.1608
 Red. masses --      1.0637                 1.0499                 1.0547
 Frc consts  --      1.3856                 1.3825                 1.3929
 IR Inten    --      1.8586                10.6490                 3.2694

                     40                     41                     42
                      A                      A                      A
 Frequencies --   1513.7006              1518.1584              1522.6214
 Red. masses --      1.0404                 1.0516                 1.0540
 Frc consts  --      1.4045                 1.4280                 1.4397
 IR Inten    --      5.2506                 9.6334                 4.4525

                     43                     44                     45
                      A                      A                      A
 Frequencies --   2994.6062              3017.0484              3036.4892
 Red. masses --      1.0689                 1.0485                 1.0309
 Frc consts  --      5.6477                 5.6230                 5.6001
 IR Inten    --     25.2184                27.3514                31.5963

                     46                     47                     48
                      A                      A                      A
 Frequencies --   3052.1627              3055.9354              3086.2904
 Red. masses --      1.0403                 1.0825                 1.0850
 Frc consts  --      5.7098                 5.9563                 6.0892
 IR Inten    --     18.7586                21.2298                 4.1615

                     49                     50                     51
                      A                      A                      A
 Frequencies --   3095.6482              3112.4230              3120.5627
 Red. masses --      1.0850                 1.1039                 1.1013
 Frc consts  --      6.1260                 6.3008                 6.3185
 IR Inten    --     27.6183                41.1347                31.2201

                     52                     53                     54
                      A                      A                      A
 Frequencies --   3129.4055              3134.0158              3143.4203
 Red. masses --      1.1025                 1.1005                 1.1047
 Frc consts  --      6.3617                 6.3688                 6.4313
 IR Inten    --     22.3614                23.6931                15.1278

 - Thermochemistry -
 -------------------
 Temperature   298.150 Kelvin.  Pressure   1.00000 Atm.
 Atom     1 has atomic number  6 and mass  12.00000

 Molecular mass:   105.09155 amu.
 Principal axes and moments of inertia in atomic units:
                           1         2         3
     Eigenvalues --   617.378121248.216991522.80386
           X            0.99967  -0.00908  -0.02397
           Y            0.00873   0.99986  -0.01462
           Z            0.02410   0.01440   0.99961
 This molecule is an asymmetric top.
 Rotational symmetry number  1.
 Warning -- assumption of classical behavior for rotation
           may cause significant error
 Rotational temperatures (Kelvin)      0.14029     0.06939     0.05688
 Rotational constants (GHZ):           2.92323     1.44586     1.18514
    1 imaginary frequencies ignored.
 Zero-point vibrational energy     447839.8 (Joules/Mol)
                                  107.03629 (Kcal/Mol)
 Warning -- explicit consideration of  13 degrees of freedom as
           vibrations may cause significant error
 Vibrational temperatures:     27.23   112.54   133.63   167.09   198.83
          (Kelvin)            245.18   303.80   345.91   398.29   486.04
                              616.33   666.56   764.73  1097.42  1212.31
                             1245.43  1322.30  1400.06  1433.68  1495.04
                             1517.47  1590.49  1642.68  1693.87  1723.07
                             1734.28  1751.80  1866.29  1904.60  2014.60
                             2036.92  2049.83  2094.97  2101.92  2130.03
                             2139.32  2150.91  2154.08  2177.88  2184.29
                             2190.71  4308.57  4340.86  4368.83  4391.38
                             4396.81  4440.48  4453.95  4478.08  4489.79
                             4502.52  4509.15  4522.68

 Zero-point correction=                           0.170573 (Hartree/Particle)
 Thermal correction to Energy=                    0.181025
 Thermal correction to Enthalpy=                  0.181969
 Thermal correction to Gibbs Free Energy=         0.133096
 Sum of electronic and zero-point Energies=           -348.308547
 Sum of electronic and thermal Energies=              -348.298095
 Sum of electronic and thermal Enthalpies=            -348.297151
 Sum of electronic and thermal Free Energies=         -348.346024

                     E (Thermal)             CV                S
                      KCal/Mol        Cal/Mol-Kelvin    Cal/Mol-Kelvin
 Total                  113.595             34.830            102.862
 Electronic               0.000              0.000              1.377
 Translational            0.889              2.981             39.866
 Rotational               0.889              2.981             28.553
 Vibrational            111.818             28.868             33.066
 Vibration     1          0.593              1.986              6.744
 Vibration     2          0.600              1.964              3.935
 Vibration     3          0.602              1.954              3.599
 Vibration     4          0.608              1.936              3.164
 Vibration     5          0.614              1.915              2.829
 Vibration     6          0.626              1.879              2.431
 Vibration     7          0.643              1.824              2.034
 Vibration     8          0.657              1.779              1.800
 Vibration     9          0.678              1.716              1.553
 Vibration    10          0.718              1.600              1.222
 Vibration    11          0.790              1.408              0.864
 Vibration    12          0.821              1.331              0.757
 Vibration    13          0.886              1.180              0.584

 Optimization completed.
    -- Stationary point found.

 1\1\GINC-N58\Freq\UB2PLYPD3-FC\CC-pVTZ\C5H13O2(2)\ROOT\08-Jun-2019\0\\
 #N Geom=AllCheck Guess=TCheck SCRF=Check GenChk UB2PLYPD3(FC)/CC-pVTZ
 Freq\\Title Card Required\\0,2\C,1.7733027098,-0.0157056316,0.56239049
 15\H,1.1889337174,-0.1674241935,1.472763184\C,0.9706037268,0.801288193
 7,-0.4155168299\H,1.4475340522,0.9016033981,-1.3904698196\C,-2.2040801
 898,-0.7310451525,0.9237955449\H,-1.3122395572,-0.6095647693,1.5404274
 608\H,-3.0633199099,-0.291285004,1.4262449167\H,-2.3796076711,-1.78872
 69026,0.7342365481\O,-2.0788664782,-0.0176208605,-0.2975491306\O,-1.03

 Normal termination of Gaussian 16 at Sat Jun  8 07:36:14 2019.
