 Gaussian 16, Revision B.01,
 Gaussian 16:  ES64L-G16RevB.01 20-Dec-2017

 ----------------------------------------------------------------------
 # opt=(calcfc,ts,noeigentest,maxcyc=500) freq=noraman uB2PLYPD3/cc-pvt
 z
 ----------------------------------------------------------------------

 -------------------
 Title Card Required
 -------------------
 Symbolic Z-matrix:
 Charge =  0 Multiplicity = 2

 SCF Done:  E(UB2PLYPD3) =  -191.062701017     A.U. after   19 cycles
 E2(B2PLYPD3) =    -0.2224251832D+00 E(B2PLYPD3) =    -0.19128512620032D+03
 E2(B2PLYPD3) =    -0.2224251832D+00 E(B2PLYPD3) =    -0.19128512620032D+03
 SCF Done:  E(UB2PLYPD3) =  -191.062524681     A.U. after   16 cycles
 E2(B2PLYPD3) =    -0.2230022810D+00 E(B2PLYPD3) =    -0.19128552696165D+03
 SCF Done:  E(UB2PLYPD3) =  -191.062472728     A.U. after   11 cycles
 E2(B2PLYPD3) =    -0.2230570041D+00 E(B2PLYPD3) =    -0.19128552973222D+03
 Optimization completed.
    -- Stationary point found.
 Normal termination of Gaussian 16 at Wed Jun  5 14:48:24 2019.

 ----------------------------------------------------------------------
 #N Geom=AllCheck Guess=TCheck SCRF=Check GenChk UB2PLYPD3(FC)/CC-pVTZ
 Freq
 ----------------------------------------------------------------------

 Structure from the checkpoint file:  "/localscratch/341085/Gau-18240.chk"
 -------------------
 Title Card Required
 -------------------
 Charge =  0 Multiplicity = 2

                         Standard orientation:
 ---------------------------------------------------------------------
 Center     Atomic      Atomic             Coordinates (Angstroms)
 Number     Number       Type             X           Y           Z
 ---------------------------------------------------------------------
      1          6           0       -1.165137    0.263517    0.105357
      2          1           0       -1.025624    1.310705   -0.169446
      3          1           0       -2.040152   -0.140056   -0.398509
      4          1           0       -1.270821    0.172535    1.184350
      5          8           0       -0.074896   -0.521419   -0.360869
      6          8           0        1.073125   -0.121729    0.336378
      7          1           0        1.497331    0.701231   -0.265443
      8          1           0        1.844260    1.519670   -0.787171
 ---------------------------------------------------------------------

 SCF Done:  E(UB2PLYPD3) =  -191.062472728     A.U. after    1 cycles
 E2(B2PLYPD3) =    -0.2230569981D+00 E(B2PLYPD3) =    -0.19128552972626D+03
 E2(B2PLYPD3) =    -0.2230569981D+00 E(B2PLYPD3) =    -0.19128552972626D+03

 The electronic state is 2-A.
 Alpha  occ. eigenvalues --  -19.81095 -19.80391 -10.67098  -1.29899  -1.04231
 Alpha  occ. eigenvalues --   -0.79191  -0.64778  -0.57413  -0.56097  -0.51837
 Alpha  occ. eigenvalues --   -0.45691  -0.41685  -0.38672  -0.34699
 Alpha virt. eigenvalues --    0.08805   0.11686   0.14525   0.14990   0.17500
 Alpha virt. eigenvalues --    0.20778   0.28846   0.30436   0.32407   0.42407
 Alpha virt. eigenvalues --    0.48608   0.49007   0.50336   0.51202   0.53103

  Beta  occ. eigenvalues --  -19.80204 -19.79635 -10.67105  -1.27998  -1.01558
  Beta  occ. eigenvalues --   -0.78742  -0.60638  -0.55966  -0.55767  -0.48741
  Beta  occ. eigenvalues --   -0.44824  -0.37689  -0.35736
  Beta virt. eigenvalues --   -0.08437   0.08929   0.12447   0.14588   0.15074
  Beta virt. eigenvalues --    0.18643   0.22825   0.29717   0.30783   0.33772
  Beta virt. eigenvalues --    0.42882   0.49069   0.50434   0.51346   0.52317

 Mulliken charges and spin densities:
               1          2
     1  C   -0.040471  -0.002070
     2  H    0.069824  -0.001594
     3  H    0.097339  -0.000657
     4  H    0.086272   0.003350
     5  O   -0.171703   0.038606
     6  O   -0.194420   0.380849
     7  H    0.199335  -0.127204
     8  H   -0.046176   0.708719
 Sum of Mulliken charges =  -0.00000   1.00000

 Dipole moment (field-independent basis, Debye):
    X=             -1.3352    Y=              1.5728    Z=             -0.0698  Tot=              2.0643
 Quadrupole moment (field-independent basis, Debye-Ang):
   XX=            -17.3983   YY=            -19.8922   ZZ=            -20.1753
   XY=              1.0534   XZ=             -0.8815   YZ=             -0.6008

  Exact polarizability:  44.602  13.275  35.667  -5.624  -7.311  26.116
 Approx polarizability:  36.763   8.267  34.879  -0.659  -4.947  27.839

 ******    1 imaginary frequencies (negative Signs) ******

                      1                      2                      3
                      A                      A                      A
 Frequencies --  -1751.8937               173.9370               234.5331
 Red. masses --      1.0673                 1.1725                 1.1239
 Frc consts  --      1.9299                 0.0209                 0.0364
 IR Inten    --   1698.4511                 3.7697                 1.5436

                      4                      5                      6
                      A                      A                      A
 Frequencies --    408.7924               474.2710               693.3234
 Red. masses --      1.4365                 3.3106                 1.0228
 Frc consts  --      0.1414                 0.4387                 0.2897
 IR Inten    --      3.0119                 3.0703                31.8136

                      7                      8                      9
                      A                      A                      A
 Frequencies --    930.6227              1068.8904              1174.7338
 Red. masses --      4.6374                 8.0591                 1.2689
 Frc consts  --      2.3663                 5.4251                 1.0317
 IR Inten    --     15.9784                19.2964                 2.8563

                     10                     11                     12
                      A                      A                      A
 Frequencies --   1215.2038              1326.3956              1458.9870
 Red. masses --      1.5659                 1.0617                 1.1481
 Frc consts  --      1.3624                 1.1005                 1.4400
 IR Inten    --      3.3760                 9.0155                 6.1283

                     13                     14                     15
                      A                      A                      A
 Frequencies --   1481.3613              1505.6220              1515.8325
 Red. masses --      1.0494                 1.1270                 1.0544
 Frc consts  --      1.3568                 1.5053                 1.4274
 IR Inten    --      9.6652                15.6473                 5.7800

                     16                     17                     18
                      A                      A                      A
 Frequencies --   3036.4916              3118.6963              3155.6192
 Red. masses --      1.0330                 1.1010                 1.1054
 Frc consts  --      5.6119                 6.3094                 6.4856
 IR Inten    --     26.6889                35.2565                12.8215

 - Thermochemistry -
 -------------------
 Temperature   298.150 Kelvin.  Pressure   1.00000 Atm.
 Atom     1 has atomic number  6 and mass  12.00000

 Molecular mass:    49.02895 amu.
 Principal axes and moments of inertia in atomic units:
                           1         2         3
     Eigenvalues --    56.43529 190.19309 206.46251
           X            0.99651   0.04011  -0.07321
           Y           -0.06340   0.93419  -0.35111
           Z            0.05431   0.35453   0.93347
 This molecule is an asymmetric top.
 Rotational symmetry number  1.
 Rotational temperatures (Kelvin)      1.53475     0.45540     0.41951
 Rotational constants (GHZ):          31.97895     9.48899     8.74125
    1 imaginary frequencies ignored.
 Zero-point vibrational energy     137410.9 (Joules/Mol)
                                   32.84200 (Kcal/Mol)
 Warning -- explicit consideration of   4 degrees of freedom as
           vibrations may cause significant error
 Vibrational temperatures:    250.26   337.44   588.16   682.37   997.54
          (Kelvin)           1338.96  1537.89  1690.18  1748.41  1908.39
                             2099.16  2131.35  2166.25  2180.94  4368.83
                             4487.11  4540.23

 Zero-point correction=                           0.052337 (Hartree/Particle)
 Thermal correction to Energy=                    0.057082
 Thermal correction to Enthalpy=                  0.058026
 Thermal correction to Gibbs Free Energy=         0.025788
 Sum of electronic and zero-point Energies=           -191.233193
 Sum of electronic and thermal Energies=              -191.228448
 Sum of electronic and thermal Enthalpies=            -191.227503
 Sum of electronic and thermal Free Energies=         -191.259742

                     E (Thermal)             CV                S
                      KCal/Mol        Cal/Mol-Kelvin    Cal/Mol-Kelvin
 Total                   35.820             14.855             67.851
 Electronic               0.000              0.000              1.377
 Translational            0.889              2.981             37.593
 Rotational               0.889              2.981             22.321
 Vibrational             34.042              8.894              6.560
 Vibration     1          0.627              1.875              2.393
 Vibration     2          0.654              1.788              1.844
 Vibration     3          0.773              1.451              0.931
 Vibration     4          0.831              1.307              0.726

 Optimization completed.
    -- Stationary point found.
 Normal termination of Gaussian 16 at Wed Jun  5 14:52:14 2019.
