 Gaussian 16, Revision B.01,
 Gaussian 16:  ES64L-G16RevB.01 20-Dec-2017

 ----------------------------------------------------------------------
 # opt=(calcfc,ts,noeigentest,maxcyc=500,modredundant) uB2PLYPD3/cc-pvt
 z scf=maxcyc=500 nosymm
 ----------------------------------------------------------------------

 -------------------
 Title Card Required
 -------------------
 Symbolic Z-matrix:
 Charge =  0 Multiplicity = 2

 SCF Done:  E(UB2PLYPD3) =  -191.062472743     A.U. after   18 cycles
 E2(B2PLYPD3) =    -0.2230569632D+00 E(B2PLYPD3) =    -0.19128552970650D+03
 E2(B2PLYPD3) =    -0.2230569632D+00 E(B2PLYPD3) =    -0.19128552970650D+03

  Exact polarizability:  44.602  13.275  35.667  -5.624  -7.311  26.116
 Approx polarizability:  36.763   8.267  34.879  -0.659  -4.947  27.839

 Optimization completed.
    -- Stationary point found.
 SCF Done:  E(UB2PLYPD3) =  -191.061989287     A.U. after   17 cycles
 E2(B2PLYPD3) =    -0.2232726469D+00 E(B2PLYPD3) =    -0.19128526193404D+03
 SCF Done:  E(UB2PLYPD3) =  -191.062050153     A.U. after   12 cycles
 E2(B2PLYPD3) =    -0.2232243209D+00 E(B2PLYPD3) =    -0.19128527447385D+03
 Optimization completed.
 SCF Done:  E(UB2PLYPD3) =  -191.060989998     A.U. after   14 cycles
 E2(B2PLYPD3) =    -0.2234561344D+00 E(B2PLYPD3) =    -0.19128444613239D+03
 SCF Done:  E(UB2PLYPD3) =  -191.061005167     A.U. after   11 cycles
 E2(B2PLYPD3) =    -0.2234573430D+00 E(B2PLYPD3) =    -0.19128446250991D+03
 SCF Done:  E(UB2PLYPD3) =  -191.059266958     A.U. after   16 cycles
 E2(B2PLYPD3) =    -0.2237079759D+00 E(B2PLYPD3) =    -0.19128297493358D+03
 SCF Done:  E(UB2PLYPD3) =  -191.059278927     A.U. after   14 cycles
 E2(B2PLYPD3) =    -0.2237213341D+00 E(B2PLYPD3) =    -0.19128300026134D+03
 SCF Done:  E(UB2PLYPD3) =  -191.059254283     A.U. after   12 cycles
 E2(B2PLYPD3) =    -0.2237463247D+00 E(B2PLYPD3) =    -0.19128300060742D+03
 SCF Done:  E(UB2PLYPD3) =  -191.056827151     A.U. after   15 cycles
 E2(B2PLYPD3) =    -0.2239368711D+00 E(B2PLYPD3) =    -0.19128076402252D+03
 SCF Done:  E(UB2PLYPD3) =  -191.056899593     A.U. after   15 cycles
 E2(B2PLYPD3) =    -0.2239129987D+00 E(B2PLYPD3) =    -0.19128081259137D+03
 E2(B2PLYPD3) =    -0.2239524942D+00 E(B2PLYPD3) =    -0.19128081483557D+03
 E2(B2PLYPD3) =    -0.2239715542D+00 E(B2PLYPD3) =    -0.19127786018467D+03
 E2(B2PLYPD3) =    -0.2239095071D+00 E(B2PLYPD3) =    -0.19127793249830D+03
 E2(B2PLYPD3) =    -0.2239416959D+00 E(B2PLYPD3) =    -0.19127793952829D+03
 E2(B2PLYPD3) =    -0.2239518430D+00 E(B2PLYPD3) =    -0.19127793958963D+03
 E2(B2PLYPD3) =    -0.2236848202D+00 E(B2PLYPD3) =    -0.19127449417398D+03
 E2(B2PLYPD3) =    -0.2235789828D+00 E(B2PLYPD3) =    -0.19127456080520D+03
 E2(B2PLYPD3) =    -0.2236276957D+00 E(B2PLYPD3) =    -0.19127457096953D+03
 E2(B2PLYPD3) =    -0.2236311895D+00 E(B2PLYPD3) =    -0.19127457120505D+03
 E2(B2PLYPD3) =    -0.2226322294D+00 E(B2PLYPD3) =    -0.19128030407795D+03
 E2(B2PLYPD3) =    -0.2225083915D+00 E(B2PLYPD3) =    -0.19128026994033D+03
 E2(B2PLYPD3) =    -0.2225209426D+00 E(B2PLYPD3) =    -0.19128027032205D+03
 E2(B2PLYPD3) =    -0.2228968750D+00 E(B2PLYPD3) =    -0.19128206544909D+03
 E2(B2PLYPD3) =    -0.2227374025D+00 E(B2PLYPD3) =    -0.19128204410487D+03
 E2(B2PLYPD3) =    -0.2227325799D+00 E(B2PLYPD3) =    -0.19128204516584D+03
 E2(B2PLYPD3) =    -0.2227286825D+00 E(B2PLYPD3) =    -0.19128204525173D+03
 E2(B2PLYPD3) =    -0.2230267035D+00 E(B2PLYPD3) =    -0.19128352154672D+03
 E2(B2PLYPD3) =    -0.2228374225D+00 E(B2PLYPD3) =    -0.19128351034412D+03
 E2(B2PLYPD3) =    -0.2228343946D+00 E(B2PLYPD3) =    -0.19128351094949D+03
 SCF Done:  E(UB2PLYPD3) =  -191.060673895     A.U. after    8 cycles
 E2(B2PLYPD3) =    -0.2228371548D+00 E(B2PLYPD3) =    -0.19128351104966D+03
 SCF Done:  E(UB2PLYPD3) =  -191.061528104     A.U. after   15 cycles
 E2(B2PLYPD3) =    -0.2230835413D+00 E(B2PLYPD3) =    -0.19128461164497D+03
 SCF Done:  E(UB2PLYPD3) =  -191.061704219     A.U. after   13 cycles
 E2(B2PLYPD3) =    -0.2229040209D+00 E(B2PLYPD3) =    -0.19128460823992D+03
 SCF Done:  E(UB2PLYPD3) =  -191.061710162     A.U. after   12 cycles
 E2(B2PLYPD3) =    -0.2228981735D+00 E(B2PLYPD3) =    -0.19128460833536D+03
 SCF Done:  E(UB2PLYPD3) =  -191.061707379     A.U. after   11 cycles
 E2(B2PLYPD3) =    -0.2229011040D+00 E(B2PLYPD3) =    -0.19128460848316D+03
 SCF Done:  E(UB2PLYPD3) =  -191.062173949     A.U. after   15 cycles
 E2(B2PLYPD3) =    -0.2231165896D+00 E(B2PLYPD3) =    -0.19128529053827D+03
 SCF Done:  E(UB2PLYPD3) =  -191.062329797     A.U. after   13 cycles
 E2(B2PLYPD3) =    -0.2229636645D+00 E(B2PLYPD3) =    -0.19128529346151D+03
 SCF Done:  E(UB2PLYPD3) =  -191.062329763     A.U. after   11 cycles
 E2(B2PLYPD3) =    -0.2229637991D+00 E(B2PLYPD3) =    -0.19128529356184D+03
    -- Stationary point found.
 SCF Done:  E(UB2PLYPD3) =  -191.062353485     A.U. after   15 cycles
 E2(B2PLYPD3) =    -0.2231677893D+00 E(B2PLYPD3) =    -0.19128552127449D+03
 SCF Done:  E(UB2PLYPD3) =  -191.062473326     A.U. after   13 cycles
 E2(B2PLYPD3) =    -0.2230562663D+00 E(B2PLYPD3) =    -0.19128552959255D+03
 Optimization completed.
    -- Stationary point found.

                          Input orientation:
 ---------------------------------------------------------------------
 Center     Atomic      Atomic             Coordinates (Angstroms)
 Number     Number       Type             X           Y           Z
 ---------------------------------------------------------------------
      1          6           0       -1.162819    0.231766   -0.177193
      2          1           0       -0.658208   -0.227914   -1.029072
      3          1           0       -1.959462   -0.417469    0.178120
      4          1           0       -1.561067    1.203793   -0.460431
      5          8           0       -0.268846    0.355559    0.921632
      6          8           0        0.728795    1.272811    0.564364
      7          1           0        1.513848    0.663287    0.083527
      8          1           0        2.205846    0.102621   -0.436300
 ---------------------------------------------------------------------

 Alpha  occ. eigenvalues --  -19.81091 -19.80386 -10.67095  -1.29889  -1.04231
 Alpha  occ. eigenvalues --   -0.79186  -0.64773  -0.57408  -0.56092  -0.51835
 Alpha  occ. eigenvalues --   -0.45686  -0.41684  -0.38671  -0.34700
 Alpha virt. eigenvalues --    0.08806   0.11683   0.14526   0.14991   0.17499
 Alpha virt. eigenvalues --    0.20777   0.28843   0.30438   0.32401   0.42409
 Alpha virt. eigenvalues --    0.48609   0.49004   0.50336   0.51202   0.53101

  Beta  occ. eigenvalues --  -19.80200 -19.79633 -10.67102  -1.27991  -1.01563
  Beta  occ. eigenvalues --   -0.78738  -0.60636  -0.55964  -0.55763  -0.48741
  Beta  occ. eigenvalues --   -0.44820  -0.37688  -0.35734
  Beta virt. eigenvalues --   -0.08439   0.08930   0.12444   0.14589   0.15075
  Beta virt. eigenvalues --    0.18642   0.22824   0.29719   0.30784   0.33766
  Beta virt. eigenvalues --    0.42885   0.49071   0.50436   0.51347   0.52317

 Mulliken charges and spin densities:
               1          2
     1  C   -0.040454  -0.002057
     2  H    0.069789  -0.001600
     3  H    0.097333  -0.000653
     4  H    0.086252   0.003337
     5  O   -0.171776   0.038460
     6  O   -0.194574   0.380325
     7  H    0.199437  -0.127116
     8  H   -0.046006   0.709305
 Sum of Mulliken charges =  -0.00000   1.00000

 Dipole moment (field-independent basis, Debye):
    X=             -0.7504    Y=             -0.8856    Z=             -1.7064  Tot=              2.0638
 Quadrupole moment (field-independent basis, Debye-Ang):
   XX=            -16.5065   YY=            -21.3235   ZZ=            -21.6143
   XY=             -0.4929   XZ=             -0.1835   YZ=             -1.0293

 Normal termination of Gaussian 16 at Thu Jun 13 05:27:06 2019.
