 Gaussian 16, Revision B.01,
 Gaussian 16:  ES64L-G16RevB.01 20-Dec-2017

 ----------------------------------------------------------------------
 # opt=(calcfc,ts,noeigentest,maxcyc=500,modredundant) uB2PLYPD3/cc-pvt
 z scf=maxcyc=500 nosymm
 ----------------------------------------------------------------------

 -------------------
 Title Card Required
 -------------------
 Symbolic Z-matrix:
 Charge =  0 Multiplicity = 2

 SCF Done:  E(UB2PLYPD3) =  -191.062472743     A.U. after   18 cycles
 E2(B2PLYPD3) =    -0.2230569632D+00 E(B2PLYPD3) =    -0.19128552970650D+03
 E2(B2PLYPD3) =    -0.2230569632D+00 E(B2PLYPD3) =    -0.19128552970650D+03

  Exact polarizability:  44.602  13.275  35.667  -5.624  -7.311  26.116
 Approx polarizability:  36.763   8.267  34.879  -0.659  -4.947  27.839

 Optimization completed.
    -- Stationary point found.
 SCF Done:  E(UB2PLYPD3) =  -191.062152656     A.U. after   15 cycles
 E2(B2PLYPD3) =    -0.2230760060D+00 E(B2PLYPD3) =    -0.19128522866213D+03
 SCF Done:  E(UB2PLYPD3) =  -191.062220873     A.U. after   13 cycles
 E2(B2PLYPD3) =    -0.2230728715D+00 E(B2PLYPD3) =    -0.19128529374453D+03
 SCF Done:  E(UB2PLYPD3) =  -191.062209011     A.U. after   11 cycles
 E2(B2PLYPD3) =    -0.2230850366D+00 E(B2PLYPD3) =    -0.19128529404733D+03
 Optimization completed.
 SCF Done:  E(UB2PLYPD3) =  -191.061479275     A.U. after   14 cycles
 E2(B2PLYPD3) =    -0.2230916634D+00 E(B2PLYPD3) =    -0.19128457093799D+03
 SCF Done:  E(UB2PLYPD3) =  -191.061567088     A.U. after   14 cycles
 E2(B2PLYPD3) =    -0.2230610627D+00 E(B2PLYPD3) =    -0.19128462815044D+03
 SCF Done:  E(UB2PLYPD3) =  -191.061551786     A.U. after   11 cycles
 E2(B2PLYPD3) =    -0.2230766813D+00 E(B2PLYPD3) =    -0.19128462846752D+03
 SCF Done:  E(UB2PLYPD3) =  -191.060532934     A.U. after   14 cycles
 E2(B2PLYPD3) =    -0.2230750000D+00 E(B2PLYPD3) =    -0.19128360793438D+03
 SCF Done:  E(UB2PLYPD3) =  -191.060632166     A.U. after   14 cycles
 E2(B2PLYPD3) =    -0.2230228512D+00 E(B2PLYPD3) =    -0.19128365501743D+03
 SCF Done:  E(UB2PLYPD3) =  -191.060620147     A.U. after   11 cycles
 E2(B2PLYPD3) =    -0.2230350037D+00 E(B2PLYPD3) =    -0.19128365515120D+03
 E2(B2PLYPD3) =    -0.2230260559D+00 E(B2PLYPD3) =    -0.19128253579947D+03
 E2(B2PLYPD3) =    -0.2229562072D+00 E(B2PLYPD3) =    -0.19128258393444D+03
 E2(B2PLYPD3) =    -0.2229614408D+00 E(B2PLYPD3) =    -0.19128258436564D+03
 E2(B2PLYPD3) =    -0.2229438954D+00 E(B2PLYPD3) =    -0.19128163884753D+03
 E2(B2PLYPD3) =    -0.2228534968D+00 E(B2PLYPD3) =    -0.19128171909106D+03
 E2(B2PLYPD3) =    -0.2228617489D+00 E(B2PLYPD3) =    -0.19128171973709D+03
 E2(B2PLYPD3) =    -0.2228385756D+00 E(B2PLYPD3) =    -0.19128126971884D+03
 E2(B2PLYPD3) =    -0.2227505796D+00 E(B2PLYPD3) =    -0.19128139977721D+03
 E2(B2PLYPD3) =    -0.2227820751D+00 E(B2PLYPD3) =    -0.19128140144251D+03
 E2(B2PLYPD3) =    -0.2227875322D+00 E(B2PLYPD3) =    -0.19128140121900D+03
 E2(B2PLYPD3) =    -0.2227658413D+00 E(B2PLYPD3) =    -0.19128162627764D+03
 E2(B2PLYPD3) =    -0.2227482797D+00 E(B2PLYPD3) =    -0.19128174893848D+03
 E2(B2PLYPD3) =    -0.2227814571D+00 E(B2PLYPD3) =    -0.19128175130355D+03
 E2(B2PLYPD3) =    -0.2227811144D+00 E(B2PLYPD3) =    -0.19128175138709D+03
 E2(B2PLYPD3) =    -0.2227674617D+00 E(B2PLYPD3) =    -0.19128254425191D+03
 E2(B2PLYPD3) =    -0.2228057209D+00 E(B2PLYPD3) =    -0.19128260942815D+03
 E2(B2PLYPD3) =    -0.2228191090D+00 E(B2PLYPD3) =    -0.19128260991762D+03
 E2(B2PLYPD3) =    -0.2228142142D+00 E(B2PLYPD3) =    -0.19128362049926D+03
 E2(B2PLYPD3) =    -0.2228744238D+00 E(B2PLYPD3) =    -0.19128366226562D+03
 SCF Done:  E(UB2PLYPD3) =  -191.060785911     A.U. after    9 cycles
 E2(B2PLYPD3) =    -0.2228770402D+00 E(B2PLYPD3) =    -0.19128366295085D+03
 SCF Done:  E(UB2PLYPD3) =  -191.061697080     A.U. after   14 cycles
 E2(B2PLYPD3) =    -0.2228839464D+00 E(B2PLYPD3) =    -0.19128458102604D+03
 SCF Done:  E(UB2PLYPD3) =  -191.061686980     A.U. after   13 cycles
 E2(B2PLYPD3) =    -0.2229402984D+00 E(B2PLYPD3) =    -0.19128462727863D+03
 SCF Done:  E(UB2PLYPD3) =  -191.061679662     A.U. after   12 cycles
 E2(B2PLYPD3) =    -0.2229486470D+00 E(B2PLYPD3) =    -0.19128462830880D+03
 SCF Done:  E(UB2PLYPD3) =  -191.062274575     A.U. after   14 cycles
 E2(B2PLYPD3) =    -0.2229604115D+00 E(B2PLYPD3) =    -0.19128523498623D+03
 SCF Done:  E(UB2PLYPD3) =  -191.062289553     A.U. after   13 cycles
 E2(B2PLYPD3) =    -0.2230038717D+00 E(B2PLYPD3) =    -0.19128529342517D+03
 SCF Done:  E(UB2PLYPD3) =  -191.062279611     A.U. after   12 cycles
 E2(B2PLYPD3) =    -0.2230143217D+00 E(B2PLYPD3) =    -0.19128529393280D+03
    -- Stationary point found.
 SCF Done:  E(UB2PLYPD3) =  -191.062434442     A.U. after   14 cycles
 E2(B2PLYPD3) =    -0.2230293216D+00 E(B2PLYPD3) =    -0.19128546376312D+03
 SCF Done:  E(UB2PLYPD3) =  -191.062480922     A.U. after   14 cycles
 E2(B2PLYPD3) =    -0.2230485894D+00 E(B2PLYPD3) =    -0.19128552951104D+03
 SCF Done:  E(UB2PLYPD3) =  -191.062468823     A.U. after   11 cycles
 E2(B2PLYPD3) =    -0.2230609631D+00 E(B2PLYPD3) =    -0.19128552978627D+03
 Optimization completed.
    -- Stationary point found.

                          Input orientation:
 ---------------------------------------------------------------------
 Center     Atomic      Atomic             Coordinates (Angstroms)
 Number     Number       Type             X           Y           Z
 ---------------------------------------------------------------------
      1          6           0       -1.125693    0.621913    0.218759
      2          1           0       -0.898605   -0.350506    0.659697
      3          1           0       -1.685795    1.229394    0.925619
      4          1           0       -1.690175    0.490619   -0.702017
      5          8           0        0.072157    1.348288   -0.025138
      6          8           0        0.793897    0.669358   -1.016351
      7          1           0        1.423415   -0.050737   -0.464520
      8          1           0        1.948887   -0.773874    0.048599
 ---------------------------------------------------------------------

 Alpha  occ. eigenvalues --  -19.81095 -19.80390 -10.67098  -1.29890  -1.04235
 Alpha  occ. eigenvalues --   -0.79189  -0.64776  -0.57411  -0.56094  -0.51838
 Alpha  occ. eigenvalues --   -0.45688  -0.41686  -0.38674  -0.34701
 Alpha virt. eigenvalues --    0.08804   0.11678   0.14525   0.14990   0.17499
 Alpha virt. eigenvalues --    0.20775   0.28844   0.30437   0.32408   0.42410
 Alpha virt. eigenvalues --    0.48609   0.49007   0.50336   0.51202   0.53104

  Beta  occ. eigenvalues --  -19.80204 -19.79635 -10.67105  -1.27989  -1.01562
  Beta  occ. eigenvalues --   -0.78741  -0.60635  -0.55965  -0.55765  -0.48741
  Beta  occ. eigenvalues --   -0.44821  -0.37691  -0.35737
  Beta virt. eigenvalues --   -0.08437   0.08928   0.12440   0.14588   0.15074
  Beta virt. eigenvalues --    0.18642   0.22823   0.29716   0.30783   0.33773
  Beta virt. eigenvalues --    0.42885   0.49069   0.50433   0.51347   0.52318

 Mulliken charges and spin densities:
               1          2
     1  C   -0.040447  -0.002064
     2  H    0.069804  -0.001594
     3  H    0.097351  -0.000657
     4  H    0.086256   0.003347
     5  O   -0.171735   0.038526
     6  O   -0.194449   0.380844
     7  H    0.199349  -0.127192
     8  H   -0.046130   0.708790
 Sum of Mulliken charges =  -0.00000   1.00000

 Dipole moment (field-independent basis, Debye):
    X=             -1.1979    Y=             -1.3445    Z=              1.0101  Tot=              2.0647
 Quadrupole moment (field-independent basis, Debye-Ang):
   XX=            -17.2134   YY=            -21.9459   ZZ=            -20.7647
   XY=             -2.2225   XZ=              0.0454   YZ=              0.9102

 Normal termination of Gaussian 16 at Thu Jun 13 04:20:02 2019.
