 Gaussian 16, Revision B.01,
 Gaussian 16:  ES64L-G16RevB.01 20-Dec-2017

 ----------------------------------------------------------------------
 # opt=(calcfc,ts,noeigentest,maxcyc=500) freq=noraman uB2PLYPD3/cc-pvt
 z
 ----------------------------------------------------------------------

 -------------------
 Title Card Required
 -------------------
 Symbolic Z-matrix:
 Charge =  0 Multiplicity = 2

 SCF Done:  E(UB2PLYPD3) =  -348.033230396     A.U. after   19 cycles
 E2(B2PLYPD3) =    -0.4506116238D+00 E(B2PLYPD3) =    -0.34848384202000D+03
 E2(B2PLYPD3) =    -0.4506116238D+00 E(B2PLYPD3) =    -0.34848384202000D+03
 SCF Done:  E(UB2PLYPD3) =  -348.033315271     A.U. after   16 cycles
 E2(B2PLYPD3) =    -0.4511445754D+00 E(B2PLYPD3) =    -0.34848445984647D+03
 SCF Done:  E(UB2PLYPD3) =  -348.033309714     A.U. after   13 cycles
 E2(B2PLYPD3) =    -0.4511661113D+00 E(B2PLYPD3) =    -0.34848447582559D+03
 SCF Done:  E(UB2PLYPD3) =  -348.033325395     A.U. after   12 cycles
 E2(B2PLYPD3) =    -0.4511517197D+00 E(B2PLYPD3) =    -0.34848447711437D+03
 SCF Done:  E(UB2PLYPD3) =  -348.033329806     A.U. after   10 cycles
 E2(B2PLYPD3) =    -0.4511473524D+00 E(B2PLYPD3) =    -0.34848447715885D+03
 SCF Done:  E(UB2PLYPD3) =  -348.033330645     A.U. after   11 cycles
 E2(B2PLYPD3) =    -0.4511465800D+00 E(B2PLYPD3) =    -0.34848447722457D+03
 SCF Done:  E(UB2PLYPD3) =  -348.033326003     A.U. after   12 cycles
 E2(B2PLYPD3) =    -0.4511513507D+00 E(B2PLYPD3) =    -0.34848447735373D+03
 SCF Done:  E(UB2PLYPD3) =  -348.033323979     A.U. after   10 cycles
 E2(B2PLYPD3) =    -0.4511533954D+00 E(B2PLYPD3) =    -0.34848447737463D+03
 Optimization completed.
    -- Stationary point found.

 1\1\GINC-N105\FTS\UB2PLYPD3-FC\CC-pVTZ\C5H13O2(2)\ROOT\10-Jun-2019\0\\
 # opt=(calcfc,ts,noeigentest,maxcyc=500) freq=noraman uB2PLYPD3/cc-pvt
 z\\Title Card Required\\0,2\C,2.0504364197,0.038143874,1.1630976812\H,
 1.6457601498,0.6561117607,1.9634531218\H,2.1677640331,-0.9779757402,1.
 5373336119\C,1.1717843338,0.0756928432,-0.0626303463\C,-2.6707604566,0
 .5673578601,0.2093917329\H,-2.0260145845,1.4173071655,0.4331350083\H,-
 3.3850767304,0.836952272,-0.5660943437\H,-3.1957027852,0.2539815634,1.
 1102900506\O,-1.9214551722,-0.512170913,-0.331918316\O,-1.0191230708,-

 Normal termination of Gaussian 16 at Mon Jun 10 19:39:03 2019.

 ----------------------------------------------------------------------
 #N Geom=AllCheck Guess=TCheck SCRF=Check GenChk UB2PLYPD3(FC)/CC-pVTZ
 Freq
 ----------------------------------------------------------------------

 Structure from the checkpoint file:  "/localscratch/346541/Gau-42418.chk"
 -------------------
 Title Card Required
 -------------------
 Charge =  0 Multiplicity = 2

                         Standard orientation:
 ---------------------------------------------------------------------
 Center     Atomic      Atomic             Coordinates (Angstroms)
 Number     Number       Type             X           Y           Z
 ---------------------------------------------------------------------
      1          6           0        2.016839    0.056173    1.238317
      2          1           0        1.580654    0.673913    2.022126
      3          1           0        2.129176   -0.957635    1.620276
      4          6           0        1.179857    0.082445   -0.016521
      5          6           0       -2.673315    0.545368    0.123658
      6          1           0       -2.042983    1.401091    0.365718
      7          1           0       -3.363043    0.806594   -0.676557
      8          1           0       -3.226008    0.231236    1.007535
      9          8           0       -1.897953   -0.530304   -0.387810
     10          8           0       -1.026309   -0.953802    0.633424
     11          1           0        0.030355   -0.428981    0.357730
     12          1           0        3.020329    0.443623    1.030644
     13          6           0        0.826125    1.460379   -0.517991
     14          1           0        0.073988    1.412208   -1.304694
     15          1           0        0.453945    2.096293    0.284126
     16          1           0        1.713047    1.945620   -0.939855
     17          6           0        1.618573   -0.876877   -1.095077
     18          1           0        0.889502   -0.919538   -1.902921
     19          1           0        2.574061   -0.553733   -1.522471
     20          1           0        1.752596   -1.882764   -0.700884
 ---------------------------------------------------------------------

 SCF Done:  E(UB2PLYPD3) =  -348.033323979     A.U. after    1 cycles
 E2(B2PLYPD3) =    -0.4511533954D+00 E(B2PLYPD3) =    -0.34848447737473D+03
 E2(B2PLYPD3) =    -0.4511533954D+00 E(B2PLYPD3) =    -0.34848447737473D+03

 The electronic state is 2-A.
 Alpha  occ. eigenvalues --  -19.78268 -19.77976 -10.65730 -10.64255 -10.61067
 Alpha  occ. eigenvalues --  -10.61021 -10.60601  -1.26846  -1.01431  -0.94053
 Alpha  occ. eigenvalues --   -0.80414  -0.80106  -0.77254  -0.66380  -0.59612
 Alpha  occ. eigenvalues --   -0.55414  -0.54126  -0.53008  -0.51687  -0.51567
 Alpha  occ. eigenvalues --   -0.48105  -0.46222  -0.45891  -0.43879  -0.43675
 Alpha  occ. eigenvalues --   -0.40842  -0.40780  -0.36588  -0.35416  -0.28422
 Alpha virt. eigenvalues --    0.07042   0.09660   0.11294   0.12225   0.13180
 Alpha virt. eigenvalues --    0.13555   0.14110   0.14874   0.16411   0.17196
 Alpha virt. eigenvalues --    0.18307   0.18799   0.19492   0.20269   0.21459

  Beta  occ. eigenvalues --  -19.78117 -19.76198 -10.65739 -10.63100 -10.61114
  Beta  occ. eigenvalues --  -10.61067 -10.60651  -1.24848  -0.98283  -0.92236
  Beta  occ. eigenvalues --   -0.80245  -0.79948  -0.76831  -0.63200  -0.56974
  Beta  occ. eigenvalues --   -0.54315  -0.53757  -0.51514  -0.51306  -0.51224
  Beta  occ. eigenvalues --   -0.45684  -0.45461  -0.44089  -0.43795  -0.42575
  Beta  occ. eigenvalues --   -0.40477  -0.40417  -0.34867  -0.32311
  Beta virt. eigenvalues --   -0.03639   0.07141   0.09728   0.11548   0.12288
  Beta virt. eigenvalues --    0.13444   0.13796   0.14227   0.15211   0.16520
  Beta virt. eigenvalues --    0.17376   0.18527   0.19032   0.19623   0.20842

 Mulliken charges and spin densities:
               1          2
     1  C   -0.301013  -0.021817
     2  H    0.104998   0.003085
     3  H    0.109876   0.003487
     4  C   -0.000950   0.526433
     5  C   -0.059884  -0.004032
     6  H    0.068526   0.002306
     7  H    0.094853  -0.001102
     8  H    0.093375   0.001824
     9  O   -0.195132   0.025174
    10  O   -0.233351   0.459769
    11  H    0.207872  -0.066627
    12  H    0.096008   0.036160
    13  C   -0.326565  -0.024123
    14  H    0.117514   0.004318
    15  H    0.104512   0.002253
    16  H    0.103133   0.036224
    17  C   -0.296838  -0.024794
    18  H    0.113506   0.003632
    19  H    0.092211   0.034999
    20  H    0.107349   0.002829
 Sum of Mulliken charges =  -0.00000   1.00000

 Dipole moment (field-independent basis, Debye):
    X=              0.9643    Y=              2.0836    Z=             -0.0755  Tot=              2.2972
 Quadrupole moment (field-independent basis, Debye-Ang):
   XX=            -41.8665   YY=            -47.3125   ZZ=            -46.5754
   XY=             -3.9153   XZ=             -0.2309   YZ=              0.2388

  Exact polarizability: 116.558   2.772  71.882  -1.872  -1.507  70.399
 Approx polarizability: 101.437   4.395  80.373   0.183  -3.085  80.071

 ******    1 imaginary frequencies (negative Signs) ******

                      1                      2                      3
                      A                      A                      A
 Frequencies --  -1823.9315                 8.1643                82.4746
 Red. masses --      1.1214                 3.3963                 2.5738
 Frc consts  --      2.1981                 0.0001                 0.0103
 IR Inten    --   2237.1734                 1.9777                 0.5496

                      4                      5                      6
                      A                      A                      A
 Frequencies --    108.9414               132.1019               184.8692
 Red. masses --      2.5783                 3.0780                 1.4616
 Frc consts  --      0.0180                 0.0316                 0.0294
 IR Inten    --      3.1329                 2.0823                 0.5636

                      7                      8                      9
                      A                      A                      A
 Frequencies --    188.1688               217.6588               231.4328
 Red. masses --      1.0611                 1.0996                 1.3031
 Frc consts  --      0.0221                 0.0307                 0.0411
 IR Inten    --      0.0830                 0.0229                 2.6682

                     10                     11                     12
                      A                      A                      A
 Frequencies --    238.4871               346.7766               371.5726
 Red. masses --      1.5791                 2.6207                 2.0409
 Frc consts  --      0.0529                 0.1857                 0.1660
 IR Inten    --      3.7232                 0.9228                 0.2578

                     13                     14                     15
                      A                      A                      A
 Frequencies --    382.0507               463.4229               568.2402
 Red. masses --      2.2817                 3.5619                 3.4325
 Frc consts  --      0.1962                 0.4507                 0.6530
 IR Inten    --      0.2523                 6.1907                 3.1705

                     16                     17                     18
                      A                      A                      A
 Frequencies --    805.1544               918.9483               936.6186
 Red. masses --      2.9422                 4.8912                 1.2649
 Frc consts  --      1.1238                 2.4336                 0.6538
 IR Inten    --      1.1327                10.0800                 0.5756

                     19                     20                     21
                      A                      A                      A
 Frequencies --    944.2312               973.0211              1006.5287
 Red. masses --      1.3409                 1.2085                 1.6341
 Frc consts  --      0.7044                 0.6741                 0.9754
 IR Inten    --      0.0465                 0.0070                 0.3005

                     22                     23                     24
                      A                      A                      A
 Frequencies --   1019.5220              1055.2234              1126.0384
 Red. masses --      1.6289                 7.5745                 1.0953
 Frc consts  --      0.9976                 4.9692                 0.8182
 IR Inten    --      0.2936                46.5686                12.2826

                     25                     26                     27
                      A                      A                      A
 Frequencies --   1178.8906              1200.3995              1217.5565
 Red. masses --      1.2674                 1.9109                 1.6233
 Frc consts  --      1.0378                 1.6223                 1.4179
 IR Inten    --      2.0114                33.6486                 5.7698

                     28                     29                     30
                      A                      A                      A
 Frequencies --   1271.5486              1284.0663              1401.8816
 Red. masses --      2.6080                 2.6866                 1.2539
 Frc consts  --      2.4844                 2.6099                 1.4519
 IR Inten    --      8.5467                 3.0219                10.7233

                     31                     32                     33
                      A                      A                      A
 Frequencies --   1404.7183              1426.4416              1456.9753
 Red. masses --      1.2554                 1.2177                 1.1234
 Frc consts  --      1.4595                 1.4598                 1.4050
 IR Inten    --     10.0267                 0.6188                 2.3494

                     34                     35                     36
                      A                      A                      A
 Frequencies --   1460.7411              1478.1723              1482.2976
 Red. masses --      1.1060                 1.0458                 1.0493
 Frc consts  --      1.3905                 1.3463                 1.3584
 IR Inten    --      2.1882                 0.3648                 5.1014

                     37                     38                     39
                      A                      A                      A
 Frequencies --   1493.2085              1494.2414              1503.7268
 Red. masses --      1.0514                 1.0484                 1.0584
 Frc consts  --      1.3812                 1.3792                 1.4100
 IR Inten    --      1.4128                 0.2878                 4.2847

                     40                     41                     42
                      A                      A                      A
 Frequencies --   1504.5822              1517.1398              1524.3223
 Red. masses --      1.0631                 1.0521                 1.0553
 Frc consts  --      1.4180                 1.4268                 1.4447
 IR Inten    --      6.3764                 5.2741                14.6899

                     43                     44                     45
                      A                      A                      A
 Frequencies --   3011.1857              3011.5597              3017.6271
 Red. masses --      1.0470                 1.0474                 1.0478
 Frc consts  --      5.5933                 5.5971                 5.6216
 IR Inten    --     13.1643                12.0655                70.9871

                     46                     47                     48
                      A                      A                      A
 Frequencies --   3042.3594              3087.3683              3090.4844
 Red. masses --      1.0285                 1.0848                 1.0843
 Frc consts  --      5.6090                 6.0922                 6.1017
 IR Inten    --     45.6235                15.1195                17.4770

                     49                     50                     51
                      A                      A                      A
 Frequencies --   3095.5393              3118.9206              3124.1046
 Red. masses --      1.0841                 1.1062                 1.1030
 Frc consts  --      6.1208                 6.3400                 6.3430
 IR Inten    --     17.0124                34.7891                 4.2035

                     52                     53                     54
                      A                      A                      A
 Frequencies --   3127.1993              3131.4975              3142.9498
 Red. masses --      1.1022                 1.1023                 1.1047
 Frc consts  --      6.3507                 6.3687                 6.4294
 IR Inten    --     31.6711                23.5787                16.2736

 - Thermochemistry -
 -------------------
 Temperature   298.150 Kelvin.  Pressure   1.00000 Atm.
 Atom     1 has atomic number  6 and mass  12.00000

 Molecular mass:   105.09155 amu.
 Principal axes and moments of inertia in atomic units:
                           1         2         3
     Eigenvalues --   501.414621375.067811421.72072
           X            0.99961  -0.02770  -0.00381
           Y            0.02793   0.99579   0.08725
           Z            0.00137  -0.08733   0.99618
 This molecule is an asymmetric top.
 Rotational symmetry number  1.
 Warning -- assumption of classical behavior for rotation
           may cause significant error
 Rotational temperatures (Kelvin)      0.17274     0.06299     0.06092
 Rotational constants (GHZ):           3.59930     1.31247     1.26941
    1 imaginary frequencies ignored.
 Zero-point vibrational energy     446275.0 (Joules/Mol)
                                  106.66229 (Kcal/Mol)
 Warning -- explicit consideration of  14 degrees of freedom as
           vibrations may cause significant error
 Vibrational temperatures:     11.75   118.66   156.74   190.07   265.99
          (Kelvin)            270.73   313.16   332.98   343.13   498.93
                              534.61   549.69   666.76   817.57  1158.44
                             1322.16  1347.59  1358.54  1399.96  1448.17
                             1466.86  1518.23  1620.12  1696.16  1727.11
                             1751.79  1829.47  1847.48  2016.99  2021.08
                             2052.33  2096.26  2101.68  2126.76  2132.70
                             2148.39  2149.88  2163.53  2164.76  2182.83
                             2193.16  4332.42  4332.96  4341.69  4377.28
                             4442.03  4446.52  4453.79  4487.43  4494.89
                             4499.34  4505.53  4522.00

 Zero-point correction=                           0.169977 (Hartree/Particle)
 Thermal correction to Energy=                    0.180602
 Thermal correction to Enthalpy=                  0.181546
 Thermal correction to Gibbs Free Energy=         0.132066
 Sum of electronic and zero-point Energies=           -348.314500
 Sum of electronic and thermal Energies=              -348.303875
 Sum of electronic and thermal Enthalpies=            -348.302931
 Sum of electronic and thermal Free Energies=         -348.352412

                     E (Thermal)             CV                S
                      KCal/Mol        Cal/Mol-Kelvin    Cal/Mol-Kelvin
 Total                  113.330             35.672            104.141
 Electronic               0.000              0.000              1.377
 Translational            0.889              2.981             39.866
 Rotational               0.889              2.981             28.374
 Vibrational            111.552             29.710             34.524
 Vibration     1          0.593              1.987              8.414
 Vibration     2          0.600              1.961              3.831
 Vibration     3          0.606              1.942              3.288
 Vibration     4          0.612              1.921              2.915
 Vibration     5          0.631              1.860              2.279
 Vibration     6          0.633              1.856              2.246
 Vibration     7          0.646              1.814              1.978
 Vibration     8          0.653              1.793              1.868
 Vibration     9          0.656              1.782              1.814
 Vibration    10          0.725              1.582              1.181
 Vibration    11          0.743              1.531              1.073
 Vibration    12          0.752              1.508              1.031
 Vibration    13          0.821              1.331              0.756
 Vibration    14          0.924              1.100              0.508

 Optimization completed.
    -- Stationary point found.
 Normal termination of Gaussian 16 at Mon Jun 10 22:27:56 2019.
