 Gaussian 16, Revision B.01,
 Gaussian 16:  ES64L-G16RevB.01 20-Dec-2017

 ----------------------------------------------------------------------
 # opt=(calcfc,ts,noeigentest,maxcyc=500,modredundant) uB2PLYPD3/cc-pvt
 z scf=maxcyc=500 nosymm
 ----------------------------------------------------------------------

 -------------------
 Title Card Required
 -------------------
 Symbolic Z-matrix:
 Charge =  0 Multiplicity = 2

 SCF Done:  E(UB2PLYPD3) =  -346.817376711     A.U. after   21 cycles
 E2(B2PLYPD3) =    -0.4421118887D+00 E(B2PLYPD3) =    -0.34725948859969D+03
 E2(B2PLYPD3) =    -0.4421118887D+00 E(B2PLYPD3) =    -0.34725948859969D+03

  Exact polarizability: 108.670   1.761  77.222   7.321  -6.437  75.474
 Approx polarizability:  97.333  -2.399  85.548   4.372 -12.041  88.514

 Optimization completed.
    -- Stationary point found.
 SCF Done:  E(UB2PLYPD3) =  -346.817391982     A.U. after   16 cycles
 E2(B2PLYPD3) =    -0.4418472727D+00 E(B2PLYPD3) =    -0.34725923925443D+03
 SCF Done:  E(UB2PLYPD3) =  -346.817602759     A.U. after   15 cycles
 E2(B2PLYPD3) =    -0.4417512821D+00 E(B2PLYPD3) =    -0.34725935404147D+03
 SCF Done:  E(UB2PLYPD3) =  -346.817553648     A.U. after   14 cycles
 E2(B2PLYPD3) =    -0.4418141494D+00 E(B2PLYPD3) =    -0.34725936779720D+03
 SCF Done:  E(UB2PLYPD3) =  -346.817546587     A.U. after   11 cycles
 E2(B2PLYPD3) =    -0.4418220095D+00 E(B2PLYPD3) =    -0.34725936859683D+03
 SCF Done:  E(UB2PLYPD3) =  -346.817538375     A.U. after   10 cycles
 E2(B2PLYPD3) =    -0.4418304184D+00 E(B2PLYPD3) =    -0.34725936879375D+03
 Optimization completed.
 SCF Done:  E(UB2PLYPD3) =  -346.817410671     A.U. after   16 cycles
 E2(B2PLYPD3) =    -0.4415390192D+00 E(B2PLYPD3) =    -0.34725894969021D+03
 SCF Done:  E(UB2PLYPD3) =  -346.817613062     A.U. after   15 cycles
 E2(B2PLYPD3) =    -0.4414371200D+00 E(B2PLYPD3) =    -0.34725905018213D+03
 SCF Done:  E(UB2PLYPD3) =  -346.817608168     A.U. after   13 cycles
 E2(B2PLYPD3) =    -0.4414497432D+00 E(B2PLYPD3) =    -0.34725905791160D+03
 SCF Done:  E(UB2PLYPD3) =  -346.817610951     A.U. after   10 cycles
 E2(B2PLYPD3) =    -0.4414472696D+00 E(B2PLYPD3) =    -0.34725905822055D+03
 E2(B2PLYPD3) =    -0.4414459140D+00 E(B2PLYPD3) =    -0.34725905830520D+03
 E2(B2PLYPD3) =    -0.4411842374D+00 E(B2PLYPD3) =    -0.34725859967362D+03
 E2(B2PLYPD3) =    -0.4411073385D+00 E(B2PLYPD3) =    -0.34725867296503D+03
 E2(B2PLYPD3) =    -0.4410786058D+00 E(B2PLYPD3) =    -0.34725867915299D+03
 E2(B2PLYPD3) =    -0.4410746674D+00 E(B2PLYPD3) =    -0.34725867930386D+03
 E2(B2PLYPD3) =    -0.4410723220D+00 E(B2PLYPD3) =    -0.34725867936432D+03
 E2(B2PLYPD3) =    -0.4408706321D+00 E(B2PLYPD3) =    -0.34725830658469D+03
 E2(B2PLYPD3) =    -0.4408164401D+00 E(B2PLYPD3) =    -0.34725834950341D+03
 E2(B2PLYPD3) =    -0.4408160677D+00 E(B2PLYPD3) =    -0.34725835010288D+03
 E2(B2PLYPD3) =    -0.4421535633D+00 E(B2PLYPD3) =    -0.34725865770117D+03
 E2(B2PLYPD3) =    -0.4420253220D+00 E(B2PLYPD3) =    -0.34725870684219D+03
 E2(B2PLYPD3) =    -0.4420777503D+00 E(B2PLYPD3) =    -0.34725873623949D+03
 E2(B2PLYPD3) =    -0.4420726540D+00 E(B2PLYPD3) =    -0.34725873630972D+03
 E2(B2PLYPD3) =    -0.4421389418D+00 E(B2PLYPD3) =    -0.34725907646051D+03
 E2(B2PLYPD3) =    -0.4422849530D+00 E(B2PLYPD3) =    -0.34725909494491D+03
 E2(B2PLYPD3) =    -0.4422472528D+00 E(B2PLYPD3) =    -0.34725909409552D+03
 E2(B2PLYPD3) =    -0.4422650537D+00 E(B2PLYPD3) =    -0.34725909572304D+03
 E2(B2PLYPD3) =    -0.4422653869D+00 E(B2PLYPD3) =    -0.34725909585013D+03
 E2(B2PLYPD3) =    -0.4421970987D+00 E(B2PLYPD3) =    -0.34725931895163D+03
 SCF Done:  E(UB2PLYPD3) =  -346.817145594     A.U. after   14 cycles
 E2(B2PLYPD3) =    -0.4422160174D+00 E(B2PLYPD3) =    -0.34725936161110D+03
 SCF Done:  E(UB2PLYPD3) =  -346.817128731     A.U. after   13 cycles
 E2(B2PLYPD3) =    -0.4422540296D+00 E(B2PLYPD3) =    -0.34725938276073D+03
 SCF Done:  E(UB2PLYPD3) =  -346.817109987     A.U. after   10 cycles
 E2(B2PLYPD3) =    -0.4422732711D+00 E(B2PLYPD3) =    -0.34725938325828D+03
    -- Stationary point found.
 SCF Done:  E(UB2PLYPD3) =  -346.817286026     A.U. after   16 cycles
 E2(B2PLYPD3) =    -0.4420860209D+00 E(B2PLYPD3) =    -0.34725937204708D+03
 SCF Done:  E(UB2PLYPD3) =  -346.817440264     A.U. after   14 cycles
 E2(B2PLYPD3) =    -0.4420351866D+00 E(B2PLYPD3) =    -0.34725947545111D+03
 SCF Done:  E(UB2PLYPD3) =  -346.817384262     A.U. after   13 cycles
 E2(B2PLYPD3) =    -0.4421038777D+00 E(B2PLYPD3) =    -0.34725948813993D+03
 SCF Done:  E(UB2PLYPD3) =  -346.817374730     A.U. after   11 cycles
 E2(B2PLYPD3) =    -0.4421139028D+00 E(B2PLYPD3) =    -0.34725948863245D+03
 SCF Done:  E(UB2PLYPD3) =  -346.817371765     A.U. after   10 cycles
 E2(B2PLYPD3) =    -0.4421171821D+00 E(B2PLYPD3) =    -0.34725948894740D+03
 SCF Done:  E(UB2PLYPD3) =  -346.817376401     A.U. after   10 cycles
 E2(B2PLYPD3) =    -0.4421126023D+00 E(B2PLYPD3) =    -0.34725948900324D+03
 SCF Done:  E(UB2PLYPD3) =  -346.817372421     A.U. after    7 cycles
 E2(B2PLYPD3) =    -0.4421166209D+00 E(B2PLYPD3) =    -0.34725948904180D+03
 Optimization completed.
    -- Stationary point found.

                          Input orientation:
 ---------------------------------------------------------------------
 Center     Atomic      Atomic             Coordinates (Angstroms)
 Number     Number       Type             X           Y           Z
 ---------------------------------------------------------------------
      1          6           0        0.895804    0.475691    1.366747
      2          1           0        1.089858   -0.108652    2.259772
      3          1           0        0.978907    1.547419    1.517804
      4          6           0       -1.869992   -0.899114   -0.937581
      5          1           0       -1.124274   -0.237011   -1.374279
      6          1           0       -1.865667   -1.856014   -1.454761
      7          1           0       -2.855870   -0.441314   -0.996519
      8          8           0       -1.548786   -1.203768    0.415764
      9          8           0       -1.582681   -0.016989    1.149687
     10          1           0       -0.401955    0.293357    1.249123
     11          6           0        1.435222   -0.050249    0.128043
     12          6           0        1.744081   -1.354725    0.001403
     13          1           0        2.106094   -1.759413   -0.932536
     14          1           0        1.639912   -2.035339    0.833428
     15          6           0        1.556109    0.903132   -1.028132
     16          1           0        2.287199    1.681732   -0.807480
     17          1           0        1.859431    0.394330   -1.940040
     18          1           0        0.604851    1.405768   -1.210332
 ---------------------------------------------------------------------

 Alpha  occ. eigenvalues --  -19.78669 -19.78020 -10.65752 -10.63658 -10.62859
 Alpha  occ. eigenvalues --  -10.61775 -10.61737  -1.27494  -1.01112  -0.94532
 Alpha  occ. eigenvalues --   -0.81400  -0.80376  -0.77169  -0.62679  -0.59875
 Alpha  occ. eigenvalues --   -0.55753  -0.54543  -0.54053  -0.53446  -0.49993
 Alpha  occ. eigenvalues --   -0.49005  -0.45494  -0.44739  -0.43859  -0.42237
 Alpha  occ. eigenvalues --   -0.38782  -0.36068  -0.34218  -0.27612
 Alpha virt. eigenvalues --    0.06650   0.07346   0.10968   0.11534   0.12059
 Alpha virt. eigenvalues --    0.13085   0.14217   0.15129   0.15957   0.16205
 Alpha virt. eigenvalues --    0.18616   0.19040   0.20281   0.20932   0.27242

  Beta  occ. eigenvalues --  -19.78382 -19.76326 -10.65765 -10.64095 -10.61903
  Beta  occ. eigenvalues --  -10.61706 -10.61107  -1.25415  -0.98025  -0.94065
  Beta  occ. eigenvalues --   -0.80441  -0.78300  -0.76464  -0.62018  -0.56919
  Beta  occ. eigenvalues --   -0.54543  -0.54162  -0.53611  -0.53135  -0.49436
  Beta  occ. eigenvalues --   -0.46345  -0.45072  -0.44519  -0.43107  -0.41918
  Beta  occ. eigenvalues --   -0.35407  -0.34190  -0.29336
  Beta virt. eigenvalues --   -0.05486   0.07422   0.07599   0.11408   0.11692
  Beta virt. eigenvalues --    0.12180   0.13475   0.14442   0.15403   0.15960
  Beta virt. eigenvalues --    0.16402   0.18824   0.19301   0.20538   0.21296

 Mulliken charges and spin densities:
               1          2
     1  C   -0.290938   0.479420
     2  H    0.118781  -0.012673
     3  H    0.112580  -0.012716
     4  C   -0.064821  -0.007334
     5  H    0.070279   0.004503
     6  H    0.096225  -0.000844
     7  H    0.099842   0.001273
     8  O   -0.180112   0.053260
     9  O   -0.231922   0.442972
    10  H    0.211920  -0.077790
    11  C    0.088319  -0.241634
    12  C   -0.302536   0.405708
    13  H    0.125562  -0.018103
    14  H    0.126004  -0.015335
    15  C   -0.297745   0.014441
    16  H    0.115292  -0.006526
    17  H    0.102844  -0.000815
    18  H    0.100427  -0.007809
 Sum of Mulliken charges =  -0.00000   1.00000

 Dipole moment (field-independent basis, Debye):
    X=              1.6285    Y=              0.5835    Z=             -1.8786  Tot=              2.5537
 Quadrupole moment (field-independent basis, Debye-Ang):
   XX=            -46.7516   YY=            -43.6986   ZZ=            -43.2553
   XY=             -0.0536   XZ=              4.2730   YZ=              2.0095

 Normal termination of Gaussian 16 at Tue Jun 18 11:04:54 2019.
