 Gaussian 16, Revision B.01,
 Gaussian 16:  ES64L-G16RevB.01 20-Dec-2017

 ----------------------------------------------------------------------
 # opt=(calcfc,ts,noeigentest,maxcyc=500) freq=noraman uB2PLYPD3/cc-pvt
 z
 ----------------------------------------------------------------------

 -------------------
 Title Card Required
 -------------------
 Symbolic Z-matrix:
 Charge =  0 Multiplicity = 2

 SCF Done:  E(UB2PLYPD3) =  -346.817610418     A.U. after   22 cycles
 E2(B2PLYPD3) =    -0.4414458180D+00 E(B2PLYPD3) =    -0.34725905623607D+03
 E2(B2PLYPD3) =    -0.4414458180D+00 E(B2PLYPD3) =    -0.34725905623607D+03
 SCF Done:  E(UB2PLYPD3) =  -346.816763294     A.U. after   21 cycles
 E2(B2PLYPD3) =    -0.4425289307D+00 E(B2PLYPD3) =    -0.34725929222434D+03
 SCF Done:  E(UB2PLYPD3) =  -346.817580303     A.U. after   17 cycles
 E2(B2PLYPD3) =    -0.4418224430D+00 E(B2PLYPD3) =    -0.34725940274601D+03
 SCF Done:  E(UB2PLYPD3) =  -346.817407913     A.U. after   15 cycles
 E2(B2PLYPD3) =    -0.4420238303D+00 E(B2PLYPD3) =    -0.34725943174333D+03
 SCF Done:  E(UB2PLYPD3) =  -346.817420634     A.U. after   15 cycles
 E2(B2PLYPD3) =    -0.4420626677D+00 E(B2PLYPD3) =    -0.34725948330214D+03
 SCF Done:  E(UB2PLYPD3) =  -346.817393993     A.U. after   18 cycles
 E2(B2PLYPD3) =    -0.4415898212D+00 E(B2PLYPD3) =    -0.34725898381389D+03
 SCF Done:  E(UB2PLYPD3) =  -346.817448585     A.U. after   17 cycles
 E2(B2PLYPD3) =    -0.4419966961D+00 E(B2PLYPD3) =    -0.34725944528120D+03
 SCF Done:  E(UB2PLYPD3) =  -346.817329419     A.U. after   15 cycles
 E2(B2PLYPD3) =    -0.4421567658D+00 E(B2PLYPD3) =    -0.34725948618453D+03
 SCF Done:  E(UB2PLYPD3) =  -346.817368918     A.U. after   12 cycles
 E2(B2PLYPD3) =    -0.4421155136D+00 E(B2PLYPD3) =    -0.34725948443116D+03
 SCF Done:  E(UB2PLYPD3) =  -346.817286596     A.U. after   17 cycles
 E2(B2PLYPD3) =    -0.4413306623D+00 E(B2PLYPD3) =    -0.34725861725848D+03
 SCF Done:  E(UB2PLYPD3) =  -346.817525112     A.U. after   16 cycles
 E2(B2PLYPD3) =    -0.4418878753D+00 E(B2PLYPD3) =    -0.34725941298683D+03
 SCF Done:  E(UB2PLYPD3) =  -346.817316799     A.U. after   16 cycles
 E2(B2PLYPD3) =    -0.4421619896D+00 E(B2PLYPD3) =    -0.34725947878840D+03
 SCF Done:  E(UB2PLYPD3) =  -346.817372572     A.U. after   13 cycles
 E2(B2PLYPD3) =    -0.4421157994D+00 E(B2PLYPD3) =    -0.34725948837113D+03
 SCF Done:  E(UB2PLYPD3) =  -346.817379364     A.U. after   10 cycles
 E2(B2PLYPD3) =    -0.4421092030D+00 E(B2PLYPD3) =    -0.34725948856666D+03
 SCF Done:  E(UB2PLYPD3) =  -346.817375848     A.U. after    9 cycles
 E2(B2PLYPD3) =    -0.4421126664D+00 E(B2PLYPD3) =    -0.34725948851400D+03
 Optimization completed.
    -- Stationary point found.

 1\1\GINC-N145\FTS\UB2PLYPD3-FC\CC-pVTZ\C5H11O2(2)\ROOT\25-Jun-2019\0\\
 # opt=(calcfc,ts,noeigentest,maxcyc=500) freq=noraman uB2PLYPD3/cc-pvt
 z\\Title Card Required\\0,2\C,0.9477562507,1.4023726293,-0.1272477659\
 H,0.9297403768,2.0854494782,0.7151793309\H,1.2905444481,1.8560624109,-
 1.0519024385\C,-1.9240890252,-1.1645500015,-0.2341666898\H,-1.00760467
 95,-1.4008587798,-0.7721147635\H,-2.1312541616,-1.9363495919,0.5037794
 661\H,-2.7544819924,-1.075680697,-0.9324191639\O,-1.778579657,0.038534
 0897,0.5134449047\O,-1.5555122489,1.0848063562,-0.3831014028\H,-0.3435

 Normal termination of Gaussian 16 at Tue Jun 25 08:28:45 2019.

 ----------------------------------------------------------------------
 #N Geom=AllCheck Guess=TCheck SCRF=Check GenChk UB2PLYPD3(FC)/CC-pVTZ
 Freq
 ----------------------------------------------------------------------

 Structure from the checkpoint file:  "/localscratch/353445/Gau-97008.chk"
 -------------------
 Title Card Required
 -------------------
 Charge =  0 Multiplicity = 2

                         Standard orientation:
 ---------------------------------------------------------------------
 Center     Atomic      Atomic             Coordinates (Angstroms)
 Number     Number       Type             X           Y           Z
 ---------------------------------------------------------------------
      1          6           0        0.950264    1.401301   -0.127264
      2          1           0        0.935441    2.083535    0.715908
      3          1           0        1.291515    1.855386   -1.052293
      4          6           0       -1.926033   -1.160814   -0.229747
      5          1           0       -1.011264   -1.398063   -0.770196
      6          1           0       -2.132642   -1.933036    0.507912
      7          1           0       -2.757997   -1.069866   -0.925859
      8          8           0       -1.776714    0.041258    0.518742
      9          8           0       -1.554144    1.088090   -0.377273
     10          1           0       -0.341761    1.255245   -0.328863
     11          6           0        1.414648    0.055430    0.146524
     12          6           0        1.392313   -0.448512    1.394966
     13          1           0        1.697418   -1.464899    1.597296
     14          1           0        1.069242    0.151890    2.232519
     15          6           0        1.842389   -0.776263   -1.030600
     16          1           0        2.730319   -0.349536   -1.498442
     17          1           0        2.064229   -1.800652   -0.740997
     18          1           0        1.060870   -0.791642   -1.792013
 ---------------------------------------------------------------------

 SCF Done:  E(UB2PLYPD3) =  -346.817375848     A.U. after    1 cycles
 E2(B2PLYPD3) =    -0.4421126640D+00 E(B2PLYPD3) =    -0.34725948851158D+03
 E2(B2PLYPD3) =    -0.4421126640D+00 E(B2PLYPD3) =    -0.34725948851158D+03

 The electronic state is 2-A.
 Alpha  occ. eigenvalues --  -19.78669 -19.78021 -10.65752 -10.63660 -10.62860
 Alpha  occ. eigenvalues --  -10.61777 -10.61738  -1.27494  -1.01113  -0.94533
 Alpha  occ. eigenvalues --   -0.81401  -0.80378  -0.77169  -0.62680  -0.59876
 Alpha  occ. eigenvalues --   -0.55753  -0.54543  -0.54055  -0.53447  -0.49993
 Alpha  occ. eigenvalues --   -0.49007  -0.45495  -0.44740  -0.43858  -0.42238
 Alpha  occ. eigenvalues --   -0.38783  -0.36067  -0.34217  -0.27614
 Alpha virt. eigenvalues --    0.06648   0.07347   0.10968   0.11534   0.12057
 Alpha virt. eigenvalues --    0.13086   0.14217   0.15130   0.15960   0.16203
 Alpha virt. eigenvalues --    0.18618   0.19040   0.20281   0.20933   0.27239

  Beta  occ. eigenvalues --  -19.78381 -19.76327 -10.65765 -10.64096 -10.61904
  Beta  occ. eigenvalues --  -10.61707 -10.61109  -1.25415  -0.98027  -0.94066
  Beta  occ. eigenvalues --   -0.80441  -0.78302  -0.76465  -0.62019  -0.56919
  Beta  occ. eigenvalues --   -0.54544  -0.54162  -0.53612  -0.53136  -0.49436
  Beta  occ. eigenvalues --   -0.46345  -0.45074  -0.44521  -0.43106  -0.41919
  Beta  occ. eigenvalues --   -0.35406  -0.34194  -0.29336
  Beta virt. eigenvalues --   -0.05487   0.07423   0.07599   0.11408   0.11692
  Beta virt. eigenvalues --    0.12178   0.13476   0.14441   0.15403   0.15964
  Beta virt. eigenvalues --    0.16399   0.18825   0.19300   0.20538   0.21297

 Mulliken charges and spin densities:
               1          2
     1  C   -0.290875   0.479520
     2  H    0.118776  -0.012676
     3  H    0.112580  -0.012724
     4  C   -0.064778  -0.007337
     5  H    0.070253   0.004509
     6  H    0.096240  -0.000843
     7  H    0.099786   0.001272
     8  O   -0.180107   0.053230
     9  O   -0.231903   0.442950
    10  H    0.211910  -0.077793
    11  C    0.088291  -0.241639
    12  C   -0.302561   0.405682
    13  H    0.125564  -0.018101
    14  H    0.125994  -0.015337
    15  C   -0.297710   0.014444
    16  H    0.115275  -0.006520
    17  H    0.102849  -0.000815
    18  H    0.100415  -0.007824
 Sum of Mulliken charges =  -0.00000   1.00000

 Dipole moment (field-independent basis, Debye):
    X=              1.8363    Y=             -1.6530    Z=             -0.6492  Tot=              2.5546
 Quadrupole moment (field-independent basis, Debye-Ang):
   XX=            -46.9623   YY=            -42.1984   ZZ=            -43.8648
   XY=              4.2677   XZ=              0.0365   YZ=              0.0908

  Exact polarizability: 108.660   1.761  77.224   7.321  -6.437  75.473
 Approx polarizability:  97.330  -2.398  85.550   4.373 -12.042  88.514

 ******    1 imaginary frequencies (negative Signs) ******

                      1                      2                      3
                      A                      A                      A
 Frequencies --  -1953.6478                47.8152                68.3901
 Red. masses --      1.1251                 3.5402                 3.3466
 Frc consts  --      2.5302                 0.0048                 0.0092
 IR Inten    --   2148.4157                 2.1396                 0.0607

                      4                      5                      6
                      A                      A                      A
 Frequencies --     89.3966               132.8086               176.2002
 Red. masses --      3.2112                 2.7095                 1.2426
 Frc consts  --      0.0151                 0.0282                 0.0227
 IR Inten    --      0.2966                 5.1508                 0.8693

                      7                      8                      9
                      A                      A                      A
 Frequencies --    179.7593               268.3218               388.9779
 Red. masses --      1.1427                 2.6548                 2.0123
 Frc consts  --      0.0218                 0.1126                 0.1794
 IR Inten    --      1.2795                 0.5745                 0.6369

                     10                     11                     12
                      A                      A                      A
 Frequencies --    429.2710               461.9730               497.3247
 Red. masses --      2.0082                 3.3489                 2.5115
 Frc consts  --      0.2180                 0.4211                 0.3660
 IR Inten    --      1.7519                 5.0116                 2.5298

                     13                     14                     15
                      A                      A                      A
 Frequencies --    548.6295               582.2353               685.1363
 Red. masses --      2.2146                 1.5862                 1.0647
 Frc consts  --      0.3927                 0.3168                 0.2945
 IR Inten    --     14.9038                 7.7453                 6.0264

                     16                     17                     18
                      A                      A                      A
 Frequencies --    852.8258               918.1302               928.6221
 Red. masses --      3.2038                 1.4344                 4.0006
 Frc consts  --      1.3729                 0.7124                 2.0326
 IR Inten    --      1.5822                25.9920                22.9211

                     19                     20                     21
                      A                      A                      A
 Frequencies --    982.6401              1013.6766              1031.9400
 Red. masses --      1.2417                 1.7202                 1.3869
 Frc consts  --      0.7064                 1.0414                 0.8702
 IR Inten    --      1.6425                 2.0424                13.7316

                     22                     23                     24
                      A                      A                      A
 Frequencies --   1057.3104              1085.7786              1095.1594
 Red. masses --      4.3731                 1.5167                 1.5571
 Frc consts  --      2.8804                 1.0535                 1.1003
 IR Inten    --     58.9759                 1.7554                 4.0173

                     25                     26                     27
                      A                      A                      A
 Frequencies --   1172.9637              1203.6467              1214.6294
 Red. masses --      1.2661                 1.0869                 1.5438
 Frc consts  --      1.0263                 0.9277                 1.3419
 IR Inten    --      2.0697                20.2907                 2.3079

                     28                     29                     30
                      A                      A                      A
 Frequencies --   1335.4586              1417.6966              1446.1110
 Red. masses --      2.5629                 1.2567                 1.0651
 Frc consts  --      2.6931                 1.4881                 1.3124
 IR Inten    --      0.9622                 5.5533                 7.1960

                     31                     32                     33
                      A                      A                      A
 Frequencies --   1451.4689              1457.1869              1481.5234
 Red. masses --      1.2653                 1.1475                 1.0550
 Frc consts  --      1.5706                 1.4356                 1.3644
 IR Inten    --     12.9781                 5.3329                 6.7418

                     34                     35                     36
                      A                      A                      A
 Frequencies --   1491.9416              1496.7980              1513.1531
 Red. masses --      1.1560                 1.0637                 1.0629
 Frc consts  --      1.5161                 1.4040                 1.4339
 IR Inten    --      5.6669                 6.6498                 6.3117

                     37                     38                     39
                      A                      A                      A
 Frequencies --   1515.3632              1651.1526              3045.4832
 Red. masses --      1.0940                 3.8027                 1.0367
 Frc consts  --      1.4801                 6.1082                 5.6652
 IR Inten    --     12.5319                27.7456                16.2594

                     40                     41                     42
                      A                      A                      A
 Frequencies --   3050.2739              3100.1966              3108.3964
 Red. masses --      1.0276                 1.0989                 1.0541
 Frc consts  --      5.6330                 6.2230                 6.0010
 IR Inten    --     51.3048                14.5469                11.3846

                     43                     44                     45
                      A                      A                      A
 Frequencies --   3129.8162              3137.7066              3149.6713
 Red. masses --      1.1071                 1.1012                 1.1049
 Frc consts  --      6.3896                 6.3878                 6.4581
 IR Inten    --     28.6880                14.5481                13.0427

                     46                     47                     48
                      A                      A                      A
 Frequencies --   3164.1661              3193.3777              3254.7651
 Red. masses --      1.0576                 1.1119                 1.1172
 Frc consts  --      6.2384                 6.6806                 6.9728
 IR Inten    --      7.3400                 7.9573                 7.2493

 - Thermochemistry -
 -------------------
 Temperature   298.150 Kelvin.  Pressure   1.00000 Atm.
 Atom     1 has atomic number  6 and mass  12.00000

 Molecular mass:   103.07590 amu.
 Principal axes and moments of inertia in atomic units:
                           1         2         3
     Eigenvalues --   541.072301164.556631271.72958
           X            0.99968   0.02526  -0.00300
           Y           -0.02507   0.99839   0.05082
           Z            0.00428  -0.05073   0.99870
 This molecule is an asymmetric top.
 Rotational symmetry number  1.
 Warning -- assumption of classical behavior for rotation
           may cause significant error
 Rotational temperatures (Kelvin)      0.16008     0.07438     0.06811
 Rotational constants (GHZ):           3.33549     1.54972     1.41912
    1 imaginary frequencies ignored.
 Zero-point vibrational energy     387023.5 (Joules/Mol)
                                   92.50083 (Kcal/Mol)
 Warning -- explicit consideration of  13 degrees of freedom as
           vibrations may cause significant error
 Vibrational temperatures:     68.80    98.40   128.62   191.08   253.51
          (Kelvin)            258.63   386.06   559.65   617.63   664.68
                              715.54   789.36   837.71   985.76  1227.03
                             1320.98  1336.08  1413.80  1458.45  1484.73
                             1521.23  1562.19  1575.69  1687.63  1731.78
                             1747.58  1921.43  2039.75  2080.63  2088.34
                             2096.57  2131.58  2146.57  2153.56  2177.09
                             2180.27  2375.64  4381.77  4388.66  4460.49
                             4472.29  4503.11  4514.46  4531.67  4552.53
                             4594.56  4682.88

 Zero-point correction=                           0.147409 (Hartree/Particle)
 Thermal correction to Energy=                    0.156986
 Thermal correction to Enthalpy=                  0.157931
 Thermal correction to Gibbs Free Energy=         0.111765
 Sum of electronic and zero-point Energies=           -347.112079
 Sum of electronic and thermal Energies=              -347.102502
 Sum of electronic and thermal Enthalpies=            -347.101558
 Sum of electronic and thermal Free Energies=         -347.147724

                     E (Thermal)             CV                S
                      KCal/Mol        Cal/Mol-Kelvin    Cal/Mol-Kelvin
 Total                   98.510             32.859             97.164
 Electronic               0.000              0.000              1.377
 Translational            0.889              2.981             39.808
 Rotational               0.889              2.981             28.174
 Vibrational             96.733             26.898             27.805
 Vibration     1          0.595              1.978              4.906
 Vibration     2          0.598              1.969              4.199
 Vibration     3          0.602              1.957              3.673
 Vibration     4          0.613              1.921              2.905
 Vibration     5          0.628              1.872              2.368
 Vibration     6          0.629              1.867              2.331
 Vibration     7          0.673              1.731              1.607
 Vibration     8          0.757              1.494              1.004
 Vibration     9          0.791              1.407              0.861
 Vibration    10          0.820              1.334              0.760
 Vibration    11          0.853              1.256              0.665
 Vibration    12          0.904              1.143              0.547
 Vibration    13          0.939              1.070              0.481

 Optimization completed.
    -- Stationary point found.
 Normal termination of Gaussian 16 at Tue Jun 25 10:30:25 2019.
