 Gaussian 16, Revision B.01,
 Gaussian 16:  ES64L-G16RevB.01 20-Dec-2017

 ----------------------------------------------------------------------
 # opt=(calcfc,ts,noeigentest,maxcyc=500) freq=noraman uB2PLYPD3/cc-pvt
 z
 ----------------------------------------------------------------------

 -------------------
 Title Card Required
 -------------------
 Symbolic Z-matrix:
 Charge =  0 Multiplicity = 2

 SCF Done:  E(UB2PLYPD3) =  -346.802938316     A.U. after   21 cycles
 E2(B2PLYPD3) =    -0.4389067859D+00 E(B2PLYPD3) =    -0.34724184510228D+03
 E2(B2PLYPD3) =    -0.4389067859D+00 E(B2PLYPD3) =    -0.34724184510228D+03
 SCF Done:  E(UB2PLYPD3) =  -346.803140323     A.U. after   18 cycles
 E2(B2PLYPD3) =    -0.4392747187D+00 E(B2PLYPD3) =    -0.34724241504208D+03
 SCF Done:  E(UB2PLYPD3) =  -346.803103902     A.U. after   14 cycles
 E2(B2PLYPD3) =    -0.4393258872D+00 E(B2PLYPD3) =    -0.34724242978922D+03
 SCF Done:  E(UB2PLYPD3) =  -346.803084083     A.U. after   14 cycles
 E2(B2PLYPD3) =    -0.4393503814D+00 E(B2PLYPD3) =    -0.34724243446476D+03
 SCF Done:  E(UB2PLYPD3) =  -346.803084850     A.U. after   10 cycles
 E2(B2PLYPD3) =    -0.4393498076D+00 E(B2PLYPD3) =    -0.34724243465787D+03
 Optimization completed.
    -- Stationary point found.

 1\1\GINC-N105\FTS\UB2PLYPD3-FC\CC-pVTZ\C5H11O2(2)\ROOT\11-Jun-2019\0\\
 # opt=(calcfc,ts,noeigentest,maxcyc=500) freq=noraman uB2PLYPD3/cc-pvt
 z\\Title Card Required\\0,2\C,-0.7197464812,-0.9592833304,0.5489417326
 \C,-1.5708531162,-0.0867129958,0.0510229123\H,-0.8133283278,-2.0152912
 196,0.7572667139\C,2.599246715,-0.3893423243,-0.8836176562\H,1.8283887
 317,-1.0698021599,-1.2502375036\H,2.9915429473,0.2037771329,-1.7074271
 19\H,3.4007206207,-0.9549233581,-0.4109639896\O,2.0475041361,0.5520197
 681,0.0226992497\O,1.6130612934,-0.1597475946,1.1699088396\H,0.5929616

 Normal termination of Gaussian 16 at Tue Jun 11 05:41:18 2019.

 ----------------------------------------------------------------------
 #N Geom=AllCheck Guess=TCheck SCRF=Check GenChk UB2PLYPD3(FC)/CC-pVTZ
 Freq
 ----------------------------------------------------------------------

 Structure from the checkpoint file:  "/localscratch/346541/Gau-79836.chk"
 -------------------
 Title Card Required
 -------------------
 Charge =  0 Multiplicity = 2

                         Standard orientation:
 ---------------------------------------------------------------------
 Center     Atomic      Atomic             Coordinates (Angstroms)
 Number     Number       Type             X           Y           Z
 ---------------------------------------------------------------------
      1          6           0        0.723519   -1.042904   -0.272409
      2          6           0        1.576839   -0.070001   -0.029531
      3          1           0        0.818379   -2.116568   -0.197872
      4          6           0       -2.582514   -0.119104    0.996257
      5          1           0       -1.805766   -0.679437    1.520038
      6          1           0       -2.968301    0.668913    1.640110
      7          1           0       -3.386937   -0.789096    0.696827
      8          8           0       -2.043084    0.552247   -0.130817
      9          8           0       -1.618068   -0.434965   -1.056137
     10          1           0       -0.594333   -0.684799   -0.731740
     11          6           0        1.247958    1.386169   -0.208599
     12          1           0        0.217858    1.535757   -0.514341
     13          1           0        1.417644    1.925051    0.725068
     14          1           0        1.910543    1.826609   -0.955525
     15          6           0        2.978377   -0.374055    0.448219
     16          1           0        3.154057   -1.442027    0.547450
     17          1           0        3.706977    0.036064   -0.252851
     18          1           0        3.154030    0.100648    1.414849
 ---------------------------------------------------------------------

 SCF Done:  E(UB2PLYPD3) =  -346.803084850     A.U. after    1 cycles
 E2(B2PLYPD3) =    -0.4393498143D+00 E(B2PLYPD3) =    -0.34724243466462D+03
 E2(B2PLYPD3) =    -0.4393498143D+00 E(B2PLYPD3) =    -0.34724243466462D+03

 The electronic state is 2-A.
 Alpha  occ. eigenvalues --  -19.78139 -19.77865 -10.65673 -10.64315 -10.63670
 Alpha  occ. eigenvalues --  -10.62299 -10.61121  -1.26722  -1.02226  -0.94453
 Alpha  occ. eigenvalues --   -0.81014  -0.80557  -0.77254  -0.63638  -0.59678
 Alpha  occ. eigenvalues --   -0.55344  -0.54495  -0.53243  -0.51463  -0.51109
 Alpha  occ. eigenvalues --   -0.48138  -0.46074  -0.44805  -0.43584  -0.43321
 Alpha  occ. eigenvalues --   -0.37038  -0.36010  -0.31862  -0.30594
 Alpha virt. eigenvalues --    0.05914   0.07231   0.10178   0.11099   0.12641
 Alpha virt. eigenvalues --    0.13143   0.14535   0.14771   0.16412   0.17395
 Alpha virt. eigenvalues --    0.18614   0.18665   0.19872   0.21733   0.25374

  Beta  occ. eigenvalues --  -19.78050 -19.76568 -10.65677 -10.64535 -10.62130
  Beta  occ. eigenvalues --  -10.62068 -10.61041  -1.25208  -0.99887  -0.93609
  Beta  occ. eigenvalues --   -0.80643  -0.78188  -0.76683  -0.61274  -0.57403
  Beta  occ. eigenvalues --   -0.54528  -0.54097  -0.52764  -0.51328  -0.49638
  Beta  occ. eigenvalues --   -0.46106  -0.45757  -0.44188  -0.43073  -0.42503
  Beta  occ. eigenvalues --   -0.35637  -0.33559  -0.30625
  Beta virt. eigenvalues --   -0.04947   0.06412   0.07364   0.10361   0.11439
  Beta virt. eigenvalues --    0.12948   0.13667   0.14517   0.14914   0.16533
  Beta virt. eigenvalues --    0.17530   0.18656   0.19043   0.20238   0.21890

 Mulliken charges and spin densities:
               1          2
     1  C   -0.334298   0.780611
     2  C    0.094587  -0.146343
     3  H    0.152813   0.025874
     4  C   -0.051238  -0.001508
     5  H    0.068227  -0.000389
     6  H    0.092773  -0.000622
     7  H    0.088349   0.001835
     8  O   -0.194544   0.016494
     9  O   -0.229819   0.324250
    10  H    0.228873  -0.067263
    11  C   -0.279613   0.026269
    12  H    0.132621  -0.000784
    13  H    0.094028  -0.004870
    14  H    0.100018  -0.004421
    15  C   -0.270138   0.058352
    16  H    0.103182  -0.003074
    17  H    0.102646  -0.002236
    18  H    0.101533  -0.002177
 Sum of Mulliken charges =  -0.00000   1.00000

 Dipole moment (field-independent basis, Debye):
    X=              1.9965    Y=             -0.5404    Z=              2.2057  Tot=              3.0238
 Quadrupole moment (field-independent basis, Debye-Ang):
   XX=            -41.3835   YY=            -43.0664   ZZ=            -46.0349
   XY=              0.9451   XZ=             -4.5475   YZ=             -0.1105

  Exact polarizability: 115.060   0.024  73.389   1.694   2.374  60.672
 Approx polarizability:  95.483   2.619  85.734   3.555   4.828  72.702

 ******    1 imaginary frequencies (negative Signs) ******

                      1                      2                      3
                      A                      A                      A
 Frequencies --  -1466.8853                29.3532                52.0937
 Red. masses --      1.1622                 3.1918                 2.9942
 Frc consts  --      1.4734                 0.0016                 0.0048
 IR Inten    --   1469.2849                 2.2109                 1.1880

                      4                      5                      6
                      A                      A                      A
 Frequencies --    101.3430               116.6234               156.4256
 Red. masses --      2.7711                 3.8192                 1.0297
 Frc consts  --      0.0168                 0.0306                 0.0148
 IR Inten    --      3.2996                 0.9084                 0.1872

                      7                      8                      9
                      A                      A                      A
 Frequencies --    183.4064               213.9135               260.7915
 Red. masses --      1.5664                 1.2194                 1.8268
 Frc consts  --      0.0310                 0.0329                 0.0732
 IR Inten    --      0.7550                 0.4371                 1.3632

                     10                     11                     12
                      A                      A                      A
 Frequencies --    360.1691               428.7924               445.1095
 Red. masses --      2.4372                 3.0651                 2.3504
 Frc consts  --      0.1863                 0.3320                 0.2744
 IR Inten    --      1.0695                 5.6630                 5.7114

                     13                     14                     15
                      A                      A                      A
 Frequencies --    464.8865               584.1532               662.2148
 Red. masses --      3.4935                 2.1695                 1.2406
 Frc consts  --      0.4448                 0.4362                 0.3205
 IR Inten    --      5.7454                25.0476                25.3509

                     16                     17                     18
                      A                      A                      A
 Frequencies --    818.8807               897.9260               911.3339
 Red. masses --      3.3794                 1.6614                 2.2411
 Frc consts  --      1.3352                 0.7892                 1.0966
 IR Inten    --      0.1100                36.1912                 0.4500

                     19                     20                     21
                      A                      A                      A
 Frequencies --    973.3521               976.2986              1042.4250
 Red. masses --      1.4105                 1.2392                 1.8412
 Frc consts  --      0.7874                 0.6959                 1.1788
 IR Inten    --      0.2868                 1.6627                35.7551

                     22                     23                     24
                      A                      A                      A
 Frequencies --   1064.4156              1108.0292              1131.8326
 Red. masses --      3.3875                 1.6335                 1.7026
 Frc consts  --      2.2613                 1.1816                 1.2851
 IR Inten    --     10.3470                 0.2766                 4.2460

                     25                     26                     27
                      A                      A                      A
 Frequencies --   1178.7243              1217.4824              1265.0268
 Red. masses --      1.2713                 1.6036                 2.5649
 Frc consts  --      1.0407                 1.4005                 2.4183
 IR Inten    --      1.6295                 5.1375                 1.1705

                     28                     29                     30
                      A                      A                      A
 Frequencies --   1403.9504              1423.2846              1438.0467
 Red. masses --      1.2352                 1.2096                 1.1044
 Frc consts  --      1.4345                 1.4437                 1.3456
 IR Inten    --      2.0164                 7.2761                 7.4518

                     31                     32                     33
                      A                      A                      A
 Frequencies --   1457.6160              1480.9158              1486.5564
 Red. masses --      1.1455                 1.0509                 1.0470
 Frc consts  --      1.4339                 1.3580                 1.3633
 IR Inten    --      4.5954                 7.4683                 0.4366

                     34                     35                     36
                      A                      A                      A
 Frequencies --   1492.4411              1500.1556              1506.5181
 Red. masses --      1.0484                 1.0769                 1.0460
 Frc consts  --      1.3758                 1.4279                 1.3987
 IR Inten    --      8.2270                 9.8619                13.9251

                     37                     38                     39
                      A                      A                      A
 Frequencies --   1519.0167              1714.7239              3032.5418
 Red. masses --      1.0509                 5.9091                 1.0312
 Frc consts  --      1.4287                10.2366                 5.5875
 IR Inten    --      8.9547                 6.1847                35.6627

                     40                     41                     42
                      A                      A                      A
 Frequencies --   3041.0420              3045.6258              3095.6023
 Red. masses --      1.0363                 1.0384                 1.0995
 Frc consts  --      5.6466                 5.6752                 6.2079
 IR Inten    --     15.8108                38.9674                 8.5333

                     43                     44                     45
                      A                      A                      A
 Frequencies --   3100.5051              3109.7430              3141.8606
 Red. masses --      1.1002                 1.1030                 1.1008
 Frc consts  --      6.2312                 6.2847                 6.4021
 IR Inten    --     22.0594                45.4814                15.3131

                     46                     47                     48
                      A                      A                      A
 Frequencies --   3142.5656              3169.7749              3210.6315
 Red. masses --      1.1046                 1.0988                 1.0972
 Frc consts  --      6.4272                 6.5045                 6.6640
 IR Inten    --     17.0763                 2.1662                 0.3596

 - Thermochemistry -
 -------------------
 Temperature   298.150 Kelvin.  Pressure   1.00000 Atm.
 Atom     1 has atomic number  6 and mass  12.00000

 Molecular mass:   103.07590 amu.
 Principal axes and moments of inertia in atomic units:
                           1         2         3
     Eigenvalues --   385.176511635.186251707.82467
           X            0.99987   0.00768  -0.01429
           Y           -0.00863   0.99766  -0.06781
           Z            0.01374   0.06792   0.99760
 This molecule is an asymmetric top.
 Rotational symmetry number  1.
 Rotational temperatures (Kelvin)      0.22487     0.05297     0.05072
 Rotational constants (GHZ):           4.68549     1.10369     1.05675
    1 imaginary frequencies ignored.
 Zero-point vibrational energy     383750.8 (Joules/Mol)
                                   91.71864 (Kcal/Mol)
 Warning -- explicit consideration of  13 degrees of freedom as
           vibrations may cause significant error
 Vibrational temperatures:     42.23    74.95   145.81   167.80   225.06
          (Kelvin)            263.88   307.77   375.22   518.20   616.94
                              640.41   668.87   840.47   952.78  1178.19
                             1291.92  1311.21  1400.44  1404.68  1499.82
                             1531.46  1594.21  1628.45  1695.92  1751.69
                             1820.09  2019.97  2047.79  2069.03  2097.18
                             2130.71  2138.82  2147.29  2158.39  2167.54
                             2185.53  2467.11  4363.15  4375.38  4381.98
                             4453.88  4460.94  4474.23  4520.44  4521.45
                             4560.60  4619.38

 Zero-point correction=                           0.146163 (Hartree/Particle)
 Thermal correction to Energy=                    0.156292
 Thermal correction to Enthalpy=                  0.157236
 Thermal correction to Gibbs Free Energy=         0.109262
 Sum of electronic and zero-point Energies=           -347.096272
 Sum of electronic and thermal Energies=              -347.086143
 Sum of electronic and thermal Enthalpies=            -347.085199
 Sum of electronic and thermal Free Energies=         -347.133173

                     E (Thermal)             CV                S
                      KCal/Mol        Cal/Mol-Kelvin    Cal/Mol-Kelvin
 Total                   98.074             33.800            100.970
 Electronic               0.000              0.000              1.377
 Translational            0.889              2.981             39.808
 Rotational               0.889              2.981             28.466
 Vibrational             96.297             27.838             31.318
 Vibration     1          0.593              1.984              5.873
 Vibration     2          0.596              1.977              4.736
 Vibration     3          0.604              1.948              3.428
 Vibration     4          0.608              1.936              3.156
 Vibration     5          0.620              1.895              2.593
 Vibration     6          0.631              1.862              2.293
 Vibration     7          0.644              1.820              2.010
 Vibration     8          0.669              1.744              1.656
 Vibration     9          0.735              1.554              1.121
 Vibration    10          0.790              1.408              0.863
 Vibration    11          0.804              1.372              0.811
 Vibration    12          0.822              1.328              0.752
 Vibration    13          0.941              1.066              0.478

 Optimization completed.
    -- Stationary point found.
 Normal termination of Gaussian 16 at Tue Jun 11 07:36:34 2019.
