 Gaussian 16, Revision B.01,
 Gaussian 16:  ES64L-G16RevB.01 20-Dec-2017

 ----------------------------------------------------------------------
 # opt=(calcfc,ts,noeigentest,maxcyc=500) freq=noraman uB2PLYPD3/cc-pvt
 z
 ----------------------------------------------------------------------

 -------------------
 Title Card Required
 -------------------
 Symbolic Z-matrix:
 Charge =  0 Multiplicity = 2

 SCF Done:  E(UB2PLYPD3) =  -348.025880474     A.U. after   19 cycles
 E2(B2PLYPD3) =    -0.4502498003D+00 E(B2PLYPD3) =    -0.34847613027454D+03
 E2(B2PLYPD3) =    -0.4502498003D+00 E(B2PLYPD3) =    -0.34847613027454D+03
 SCF Done:  E(UB2PLYPD3) =  -348.025794650     A.U. after   15 cycles
 E2(B2PLYPD3) =    -0.4503995341D+00 E(B2PLYPD3) =    -0.34847619418362D+03
 SCF Done:  E(UB2PLYPD3) =  -348.025865566     A.U. after   12 cycles
 E2(B2PLYPD3) =    -0.4503320776D+00 E(B2PLYPD3) =    -0.34847619764360D+03
 SCF Done:  E(UB2PLYPD3) =  -348.025848601     A.U. after   12 cycles
 E2(B2PLYPD3) =    -0.4503505409D+00 E(B2PLYPD3) =    -0.34847619914235D+03
 SCF Done:  E(UB2PLYPD3) =  -348.025845090     A.U. after   10 cycles
 E2(B2PLYPD3) =    -0.4503540899D+00 E(B2PLYPD3) =    -0.34847619918002D+03
 Optimization completed.
    -- Stationary point found.

 1\1\GINC-N145\FTS\UB2PLYPD3-FC\CC-pVTZ\C5H13O2(2)\ROOT\24-Jun-2019\0\\
 # opt=(calcfc,ts,noeigentest,maxcyc=500) freq=noraman uB2PLYPD3/cc-pvt
 z\\Title Card Required\\0,2\C,-1.3543605863,0.0254746329,-0.0045497838
 \H,-0.642554324,-0.6104180997,-0.5375439888\C,-0.7262048326,0.44347010
 83,1.2963752189\H,-1.2166385748,1.2626323278,1.8176818691\H,-0.4196136
 493,-0.3583367533,1.9624229651\C,2.6095465553,-0.3840458403,-0.0892870
 594\H,2.056645744,-1.0357436575,0.5895900515\H,2.9049289302,-0.9394846
 384,-0.9771180995\H,3.4871508574,0.0156479188,0.4156704138\O,1.7828910

 Normal termination of Gaussian 16 at Mon Jun 24 19:27:35 2019.

 ----------------------------------------------------------------------
 #N Geom=AllCheck Guess=TCheck SCRF=Check GenChk UB2PLYPD3(FC)/CC-pVTZ
 Freq
 ----------------------------------------------------------------------

 Structure from the checkpoint file:  "/localscratch/353445/Gau-77162.chk"
 -------------------
 Title Card Required
 -------------------
 Charge =  0 Multiplicity = 2

                         Standard orientation:
 ---------------------------------------------------------------------
 Center     Atomic      Atomic             Coordinates (Angstroms)
 Number     Number       Type             X           Y           Z
 ---------------------------------------------------------------------
      1          6           0       -1.306736   -0.153878   -0.194917
      2          1           0       -0.643746   -0.587669   -0.948163
      3          6           0       -0.669969   -0.343082    1.154318
      4          1           0       -1.095996    0.243035    1.965662
      5          1           0       -0.449122   -1.366984    1.443044
      6          6           0        2.606036   -0.849058   -0.502143
      7          1           0        1.984034   -1.663994   -0.127608
      8          1           0        2.868542   -1.031599   -1.542227
      9          1           0        3.505440   -0.762162    0.104856
     10          8           0        1.885737    0.374801   -0.507608
     11          8           0        1.603285    0.713369    0.832351
     12          1           0        0.568379    0.221165    1.035886
     13          6           0       -2.643977   -0.909094   -0.256691
     14          1           0       -3.344098   -0.510273    0.478073
     15          1           0       -3.093709   -0.801748   -1.244001
     16          1           0       -2.512230   -1.971679   -0.056325
     17          6           0       -1.495015    1.326100   -0.519104
     18          1           0       -0.543950    1.853642   -0.495894
     19          1           0       -1.935118    1.454013   -1.507402
     20          1           0       -2.162631    1.792963    0.207373
 ---------------------------------------------------------------------

 SCF Done:  E(UB2PLYPD3) =  -348.025845090     A.U. after    1 cycles
 E2(B2PLYPD3) =    -0.4503540890D+00 E(B2PLYPD3) =    -0.34847619917907D+03
 E2(B2PLYPD3) =    -0.4503540890D+00 E(B2PLYPD3) =    -0.34847619917907D+03

 The electronic state is 2-A.
 Alpha  occ. eigenvalues --  -19.78577 -19.78316 -10.66072 -10.63437 -10.62448
 Alpha  occ. eigenvalues --  -10.60797 -10.59651  -1.27231  -1.02026  -0.93496
 Alpha  occ. eigenvalues --   -0.80586  -0.79129  -0.77369  -0.65897  -0.60995
 Alpha  occ. eigenvalues --   -0.55833  -0.54556  -0.54299  -0.51031  -0.50894
 Alpha  occ. eigenvalues --   -0.48412  -0.46125  -0.44975  -0.44015  -0.41492
 Alpha  occ. eigenvalues --   -0.40350  -0.39325  -0.36758  -0.36548  -0.29662
 Alpha virt. eigenvalues --    0.07081   0.09326   0.10844   0.11849   0.12602
 Alpha virt. eigenvalues --    0.13264   0.14887   0.15061   0.16173   0.16687
 Alpha virt. eigenvalues --    0.18416   0.18743   0.19628   0.21162   0.21890

  Beta  occ. eigenvalues --  -19.78438 -19.76721 -10.66081 -10.62504 -10.62174
  Beta  occ. eigenvalues --  -10.60674 -10.59642  -1.25401  -0.99164  -0.92539
  Beta  occ. eigenvalues --   -0.78983  -0.78282  -0.76478  -0.65174  -0.57679
  Beta  occ. eigenvalues --   -0.54955  -0.54241  -0.53597  -0.50707  -0.49467
  Beta  occ. eigenvalues --   -0.46420  -0.45227  -0.44490  -0.43252  -0.40371
  Beta  occ. eigenvalues --   -0.39904  -0.39143  -0.35349  -0.33503
  Beta virt. eigenvalues --   -0.04350   0.07229   0.09466   0.11133   0.11984
  Beta virt. eigenvalues --    0.12975   0.13555   0.15009   0.15204   0.16281
  Beta virt. eigenvalues --    0.16881   0.18576   0.18987   0.19759   0.21354

 Mulliken charges and spin densities:
               1          2
     1  C   -0.029681  -0.032248
     2  H    0.106310   0.006544
     3  C   -0.306899   0.652226
     4  H    0.119498  -0.012521
     5  H    0.120548  -0.012755
     6  C   -0.061704  -0.003435
     7  H    0.068997   0.000712
     8  H    0.096679  -0.000823
     9  H    0.098060   0.001971
    10  O   -0.194334   0.024088
    11  O   -0.226802   0.406721
    12  H    0.215365  -0.072432
    13  C   -0.297439   0.031319
    14  H    0.091857  -0.000059
    15  H    0.101786   0.010534
    16  H    0.098233  -0.001196
    17  C   -0.302507   0.002867
    18  H    0.122517  -0.000086
    19  H    0.095333  -0.001222
    20  H    0.084184  -0.000203
 Sum of Mulliken charges =  -0.00000   1.00000

 Dipole moment (field-independent basis, Debye):
    X=             -0.9808    Y=             -2.2079    Z=             -0.1826  Tot=              2.4228
 Quadrupole moment (field-independent basis, Debye-Ang):
   XX=            -44.9281   YY=            -46.6559   ZZ=            -45.6381
   XY=             -4.6113   XZ=             -2.2698   YZ=              0.2864

  Exact polarizability: 108.973   3.468  70.900  -6.587   0.220  71.798
 Approx polarizability:  93.477   4.474  79.434  -5.583   1.621  84.471

 ******    1 imaginary frequencies (negative Signs) ******

                      1                      2                      3
                      A                      A                      A
 Frequencies --  -1875.6450                29.9253                52.3974
 Red. masses --      1.1062                 3.1856                 2.7485
 Frc consts  --      2.2930                 0.0017                 0.0044
 IR Inten    --   1624.3765                 1.8338                 0.4328

                      4                      5                      6
                      A                      A                      A
 Frequencies --     94.7616               101.4743               186.4407
 Red. masses --      3.6773                 2.8056                 1.4398
 Frc consts  --      0.0195                 0.0170                 0.0295
 IR Inten    --      3.6918                 2.4651                 1.0977

                      7                      8                      9
                      A                      A                      A
 Frequencies --    226.1729               245.0927               270.2479
 Red. masses --      1.0335                 1.4156                 1.4128
 Frc consts  --      0.0311                 0.0501                 0.0608
 IR Inten    --      0.1293                 0.9631                 0.3165

                     10                     11                     12
                      A                      A                      A
 Frequencies --    345.9182               388.6223               418.0412
 Red. masses --      2.4037                 2.6098                 1.8119
 Frc consts  --      0.1695                 0.2322                 0.1866
 IR Inten    --      0.8648                 0.3056                 0.7805

                     13                     14                     15
                      A                      A                      A
 Frequencies --    457.3497               526.6992               572.1206
 Red. masses --      2.7677                 1.4231                 2.6462
 Frc consts  --      0.3411                 0.2326                 0.5103
 IR Inten    --      3.4657                 3.3152                 0.6339

                     16                     17                     18
                      A                      A                      A
 Frequencies --    823.9678               909.4109               932.5347
 Red. masses --      2.7570                 4.7945                 1.2205
 Frc consts  --      1.1028                 2.3362                 0.6253
 IR Inten    --      0.4681                13.6729                 1.9799

                     19                     20                     21
                      A                      A                      A
 Frequencies --    937.0787               964.0119               974.2921
 Red. masses --      1.2557                 1.4245                 1.6480
 Frc consts  --      0.6497                 0.7800                 0.9217
 IR Inten    --      8.3711                 1.9406                 0.0625

                     22                     23                     24
                      A                      A                      A
 Frequencies --   1028.7165              1053.4906              1120.5499
 Red. masses --      1.4793                 5.9531                 1.3749
 Frc consts  --      0.9224                 3.8927                 1.0171
 IR Inten    --      4.0617                51.9089                13.1475

                     25                     26                     27
                      A                      A                      A
 Frequencies --   1172.7449              1177.6351              1202.1642
 Red. masses --      1.5966                 1.2772                 1.7658
 Frc consts  --      1.2938                 1.0436                 1.5036
 IR Inten    --      1.2139                 1.7527                 3.3081

                     28                     29                     30
                      A                      A                      A
 Frequencies --   1216.4447              1218.8634              1336.7810
 Red. masses --      1.5750                 1.8066                 1.3343
 Frc consts  --      1.3732                 1.5813                 1.4048
 IR Inten    --      4.7794                 0.8695                 1.0321

                     31                     32                     33
                      A                      A                      A
 Frequencies --   1380.0738              1404.7888              1424.9676
 Red. masses --      1.4065                 1.2258                 1.2310
 Frc consts  --      1.5783                 1.4253                 1.4728
 IR Inten    --      3.3098                 2.9790                 5.7155

                     34                     35                     36
                      A                      A                      A
 Frequencies --   1450.1140              1458.3059              1472.3312
 Red. masses --      1.0550                 1.1413                 1.1474
 Frc consts  --      1.3070                 1.4300                 1.4655
 IR Inten    --      8.9153                 3.1857                 5.3468

                     37                     38                     39
                      A                      A                      A
 Frequencies --   1482.4460              1501.7181              1504.2712
 Red. masses --      1.0559                 1.0428                 1.0520
 Frc consts  --      1.3673                 1.3856                 1.4025
 IR Inten    --      7.8383                 0.8054                 5.2799

                     40                     41                     42
                      A                      A                      A
 Frequencies --   1515.8222              1517.7034              1524.3209
 Red. masses --      1.0499                 1.0514                 1.0557
 Frc consts  --      1.4213                 1.4268                 1.4453
 IR Inten    --      4.3042                12.9737                 7.2961

                     43                     44                     45
                      A                      A                      A
 Frequencies --   3034.3347              3035.5468              3041.1334
 Red. masses --      1.0393                 1.0703                 1.0342
 Frc consts  --      5.6381                 5.8107                 5.6356
 IR Inten    --     28.1644                10.2916                30.1135

                     46                     47                     48
                      A                      A                      A
 Frequencies --   3046.1396              3086.8379              3109.0409
 Red. masses --      1.0401                 1.0530                 1.1007
 Frc consts  --      5.6864                 5.9117                 6.2685
 IR Inten    --     34.3717                13.0452                 1.8215

                     49                     50                     51
                      A                      A                      A
 Frequencies --   3112.2054              3114.8946              3118.7506
 Red. masses --      1.1025                 1.1007                 1.1021
 Frc consts  --      6.2915                 6.2924                 6.3156
 IR Inten    --     42.3094                53.4083                28.7153

                     52                     53                     54
                      A                      A                      A
 Frequencies --   3137.9266              3145.1958              3170.7518
 Red. masses --      1.1012                 1.1051                 1.1111
 Frc consts  --      6.3883                 6.4407                 6.5817
 IR Inten    --     13.5312                14.9730                17.8476

 - Thermochemistry -
 -------------------
 Temperature   298.150 Kelvin.  Pressure   1.00000 Atm.
 Atom     1 has atomic number  6 and mass  12.00000

 Molecular mass:   105.09155 amu.
 Principal axes and moments of inertia in atomic units:
                           1         2         3
     Eigenvalues --   447.994371542.957121609.30926
           X            0.99978  -0.02089  -0.00138
           Y            0.02081   0.99882  -0.04398
           Z            0.00230   0.04394   0.99903
 This molecule is an asymmetric top.
 Rotational symmetry number  1.
 Warning -- assumption of classical behavior for rotation
           may cause significant error
 Rotational temperatures (Kelvin)      0.19334     0.05614     0.05382
 Rotational constants (GHZ):           4.02849     1.16966     1.12144
    1 imaginary frequencies ignored.
 Zero-point vibrational energy     447245.3 (Joules/Mol)
                                  106.89419 (Kcal/Mol)
 Warning -- explicit consideration of  14 degrees of freedom as
           vibrations may cause significant error
 Vibrational temperatures:     43.06    75.39   136.34   146.00   268.25
          (Kelvin)            325.41   352.63   388.83   497.70   559.14
                              601.47   658.02   757.80   823.15  1185.51
                             1308.44  1341.71  1348.25  1387.00  1401.79
                             1480.09  1515.74  1612.22  1687.32  1694.35
                             1729.65  1750.19  1753.67  1923.33  1985.62
                             2021.18  2050.21  2086.39  2098.18  2118.36
                             2132.91  2160.64  2164.31  2180.93  2183.64
                             2193.16  4365.73  4367.47  4375.51  4382.72
                             4441.27  4473.22  4477.77  4481.64  4487.19
                             4514.78  4525.24  4562.00

 Zero-point correction=                           0.170347 (Hartree/Particle)
 Thermal correction to Energy=                    0.180586
 Thermal correction to Enthalpy=                  0.181530
 Thermal correction to Gibbs Free Energy=         0.133462
 Sum of electronic and zero-point Energies=           -348.305852
 Sum of electronic and thermal Energies=              -348.295613
 Sum of electronic and thermal Enthalpies=            -348.294669
 Sum of electronic and thermal Free Energies=         -348.342737

                     E (Thermal)             CV                S
                      KCal/Mol        Cal/Mol-Kelvin    Cal/Mol-Kelvin
 Total                  113.319             35.059            101.168
 Electronic               0.000              0.000              1.377
 Translational            0.889              2.981             39.866
 Rotational               0.889              2.981             28.499
 Vibrational            111.542             29.098             31.425
 Vibration     1          0.594              1.984              5.834
 Vibration     2          0.596              1.977              4.725
 Vibration     3          0.603              1.953              3.559
 Vibration     4          0.604              1.948              3.426
 Vibration     5          0.632              1.858              2.263
 Vibration     6          0.650              1.801              1.909
 Vibration     7          0.660              1.771              1.766
 Vibration     8          0.674              1.728              1.595
 Vibration     9          0.724              1.584              1.185
 Vibration    10          0.757              1.494              1.005
 Vibration    11          0.781              1.431              0.899
 Vibration    12          0.815              1.345              0.774
 Vibration    13          0.882              1.191              0.595
 Vibration    14          0.928              1.092              0.500

 Optimization completed.
    -- Stationary point found.
 Normal termination of Gaussian 16 at Mon Jun 24 22:13:58 2019.
