 Gaussian 16, Revision B.01,
 Gaussian 16:  ES64L-G16RevB.01 20-Dec-2017

 ----------------------------------------------------------------------
 # opt=(calcfc,ts,noeigentest,maxcyc=500) freq=noraman uB2PLYPD3/cc-pvt
 z
 ----------------------------------------------------------------------

 -------------------
 Title Card Required
 -------------------
 Symbolic Z-matrix:
 Charge =  0 Multiplicity = 2

 SCF Done:  E(UB2PLYPD3) =  -346.817141759     A.U. after   21 cycles
 E2(B2PLYPD3) =    -0.4417059633D+00 E(B2PLYPD3) =    -0.34725884772247D+03
 E2(B2PLYPD3) =    -0.4417059633D+00 E(B2PLYPD3) =    -0.34725884772247D+03
 SCF Done:  E(UB2PLYPD3) =  -346.817351629     A.U. after   17 cycles
 E2(B2PLYPD3) =    -0.4421196109D+00 E(B2PLYPD3) =    -0.34725947123991D+03
 SCF Done:  E(UB2PLYPD3) =  -346.817350698     A.U. after   13 cycles
 E2(B2PLYPD3) =    -0.4421362479D+00 E(B2PLYPD3) =    -0.34725948694582D+03
 SCF Done:  E(UB2PLYPD3) =  -346.817371293     A.U. after   11 cycles
 E2(B2PLYPD3) =    -0.4421171833D+00 E(B2PLYPD3) =    -0.34725948847646D+03
 SCF Done:  E(UB2PLYPD3) =  -346.817376703     A.U. after   10 cycles
 E2(B2PLYPD3) =    -0.4421118532D+00 E(B2PLYPD3) =    -0.34725948855666D+03
 Optimization completed.
    -- Stationary point found.

 1\1\GINC-N105\FTS\UB2PLYPD3-FC\CC-pVTZ\C5H11O2(2)\ROOT\11-Jun-2019\0\\
 # opt=(calcfc,ts,noeigentest,maxcyc=500) freq=noraman uB2PLYPD3/cc-pvt
 z\\Title Card Required\\0,2\C,-0.9251400369,-1.4211159531,0.0167413406
 \H,-0.8774192344,-2.0327540845,0.9112937407\H,-1.2760407067,-1.9550206
 93,-0.8608351162\C,1.8919081703,1.1814252897,-0.3576171949\H,0.9608222
 817,1.355946727,-0.8940821166\H,2.0974936787,2.0147248421,0.310591948\
 H,2.7105172588,1.0510617423,-1.0632304693\O,1.7848117164,0.0410812504,
 0.4883390908\O,1.5659442468,-1.0790188598,-0.3152462682\H,0.3588052789

 Normal termination of Gaussian 16 at Tue Jun 11 01:05:34 2019.

 ----------------------------------------------------------------------
 #N Geom=AllCheck Guess=TCheck SCRF=Check GenChk UB2PLYPD3(FC)/CC-pVTZ
 Freq
 ----------------------------------------------------------------------

 Structure from the checkpoint file:  "/localscratch/346541/Gau-41654.chk"
 -------------------
 Title Card Required
 -------------------
 Charge =  0 Multiplicity = 2

                         Standard orientation:
 ---------------------------------------------------------------------
 Center     Atomic      Atomic             Coordinates (Angstroms)
 Number     Number       Type             X           Y           Z
 ---------------------------------------------------------------------
      1          6           0        0.950282    1.401242   -0.127476
      2          1           0        0.935552    2.083661    0.715547
      3          1           0        1.291414    1.855127   -1.052648
      4          6           0       -1.926294   -1.160781   -0.229803
      5          1           0       -1.011560   -1.398139   -0.770262
      6          1           0       -2.133028   -1.933016    0.507809
      7          1           0       -2.758236   -1.069666   -0.925918
      8          8           0       -1.776804    0.041222    0.518753
      9          8           0       -1.554177    1.088097   -0.377220
     10          1           0       -0.341783    1.255150   -0.328910
     11          6           0        1.414738    0.055441    0.146526
     12          6           0        1.392347   -0.448339    1.395034
     13          1           0        1.697471   -1.464690    1.597513
     14          1           0        1.069219    0.152165    2.232493
     15          6           0        1.842653   -0.776378   -1.030452
     16          1           0        2.731223   -0.350218   -1.497601
     17          1           0        2.063568   -1.800972   -0.740867
     18          1           0        1.061656   -0.791065   -1.792407
 ---------------------------------------------------------------------

 SCF Done:  E(UB2PLYPD3) =  -346.817376703     A.U. after    1 cycles
 E2(B2PLYPD3) =    -0.4421118494D+00 E(B2PLYPD3) =    -0.34725948855278D+03
 E2(B2PLYPD3) =    -0.4421118494D+00 E(B2PLYPD3) =    -0.34725948855278D+03

 The electronic state is 2-A.
 Alpha  occ. eigenvalues --  -19.78668 -19.78020 -10.65751 -10.63660 -10.62861
 Alpha  occ. eigenvalues --  -10.61777 -10.61738  -1.27492  -1.01113  -0.94533
 Alpha  occ. eigenvalues --   -0.81401  -0.80378  -0.77169  -0.62680  -0.59875
 Alpha  occ. eigenvalues --   -0.55753  -0.54543  -0.54054  -0.53447  -0.49993
 Alpha  occ. eigenvalues --   -0.49006  -0.45495  -0.44740  -0.43858  -0.42238
 Alpha  occ. eigenvalues --   -0.38783  -0.36067  -0.34217  -0.27614
 Alpha virt. eigenvalues --    0.06649   0.07346   0.10967   0.11534   0.12057
 Alpha virt. eigenvalues --    0.13086   0.14218   0.15129   0.15959   0.16203
 Alpha virt. eigenvalues --    0.18616   0.19039   0.20281   0.20930   0.27240

  Beta  occ. eigenvalues --  -19.78381 -19.76326 -10.65764 -10.64096 -10.61904
  Beta  occ. eigenvalues --  -10.61707 -10.61109  -1.25414  -0.98027  -0.94066
  Beta  occ. eigenvalues --   -0.80441  -0.78302  -0.76464  -0.62019  -0.56919
  Beta  occ. eigenvalues --   -0.54543  -0.54162  -0.53612  -0.53136  -0.49436
  Beta  occ. eigenvalues --   -0.46345  -0.45074  -0.44521  -0.43106  -0.41919
  Beta  occ. eigenvalues --   -0.35406  -0.34194  -0.29336
  Beta virt. eigenvalues --   -0.05487   0.07422   0.07599   0.11407   0.11692
  Beta virt. eigenvalues --    0.12179   0.13476   0.14442   0.15402   0.15962
  Beta virt. eigenvalues --    0.16399   0.18823   0.19299   0.20538   0.21295

 Mulliken charges and spin densities:
               1          2
     1  C   -0.290887   0.479540
     2  H    0.118779  -0.012677
     3  H    0.112584  -0.012722
     4  C   -0.064763  -0.007336
     5  H    0.070255   0.004508
     6  H    0.096233  -0.000842
     7  H    0.099776   0.001272
     8  O   -0.180110   0.053223
     9  O   -0.231917   0.442923
    10  H    0.211927  -0.077792
    11  C    0.088294  -0.241656
    12  C   -0.302552   0.405712
    13  H    0.125564  -0.018103
    14  H    0.125995  -0.015338
    15  C   -0.297743   0.014444
    16  H    0.115293  -0.006527
    17  H    0.102849  -0.000815
    18  H    0.100422  -0.007812
 Sum of Mulliken charges =  -0.00000   1.00000

 Dipole moment (field-independent basis, Debye):
    X=              1.8365    Y=             -1.6530    Z=             -0.6494  Tot=              2.5548
 Quadrupole moment (field-independent basis, Debye-Ang):
   XX=            -46.9609   YY=            -42.1987   ZZ=            -43.8647
   XY=              4.2679   XZ=              0.0368   YZ=              0.0908

  Exact polarizability: 108.670   1.761  77.222   7.321  -6.437  75.474
 Approx polarizability:  97.333  -2.399  85.548   4.372 -12.041  88.514

 ******    1 imaginary frequencies (negative Signs) ******

                      1                      2                      3
                      A                      A                      A
 Frequencies --  -1953.7226                47.8045                68.3573
 Red. masses --      1.1251                 3.5399                 3.3462
 Frc consts  --      2.5303                 0.0048                 0.0092
 IR Inten    --   2148.8004                 2.1388                 0.0602

                      4                      5                      6
                      A                      A                      A
 Frequencies --     89.3249               132.7520               176.1818
 Red. masses --      3.2118                 2.7104                 1.2399
 Frc consts  --      0.0151                 0.0281                 0.0227
 IR Inten    --      0.2976                 5.1487                 0.8531

                      7                      8                      9
                      A                      A                      A
 Frequencies --    179.7059               268.3233               388.9626
 Red. masses --      1.1447                 2.6555                 2.0123
 Frc consts  --      0.0218                 0.1126                 0.1794
 IR Inten    --      1.2966                 0.5743                 0.6372

                     10                     11                     12
                      A                      A                      A
 Frequencies --    429.2644               461.9623               497.3290
 Red. masses --      2.0082                 3.3488                 2.5121
 Frc consts  --      0.2180                 0.4211                 0.3661
 IR Inten    --      1.7517                 5.0120                 2.5292

                     13                     14                     15
                      A                      A                      A
 Frequencies --    548.6057               582.2137               685.1297
 Red. masses --      2.2143                 1.5861                 1.0647
 Frc consts  --      0.3927                 0.3168                 0.2944
 IR Inten    --     14.9064                 7.7427                 6.0216

                     16                     17                     18
                      A                      A                      A
 Frequencies --    852.8265               918.1250               928.6082
 Red. masses --      3.2039                 1.4347                 3.9994
 Frc consts  --      1.3729                 0.7125                 2.0319
 IR Inten    --      1.5831                25.9751                22.9370

                     19                     20                     21
                      A                      A                      A
 Frequencies --    982.6564              1013.6833              1031.9450
 Red. masses --      1.2416                 1.7203                 1.3871
 Frc consts  --      0.7064                 1.0415                 0.8703
 IR Inten    --      1.6402                 2.0432                13.7425

                     22                     23                     24
                      A                      A                      A
 Frequencies --   1057.2971              1085.7684              1095.1556
 Red. masses --      4.3723                 1.5168                 1.5569
 Frc consts  --      2.8798                 1.0535                 1.1002
 IR Inten    --     58.9905                 1.7523                 4.0131

                     25                     26                     27
                      A                      A                      A
 Frequencies --   1172.9593              1203.6356              1214.6272
 Red. masses --      1.2661                 1.0868                 1.5439
 Frc consts  --      1.0263                 0.9277                 1.3420
 IR Inten    --      2.0695                20.2820                 2.3087

                     28                     29                     30
                      A                      A                      A
 Frequencies --   1335.4585              1417.6922              1446.1015
 Red. masses --      2.5629                 1.2567                 1.0650
 Frc consts  --      2.6931                 1.4881                 1.3122
 IR Inten    --      0.9628                 5.5520                 7.2065

                     31                     32                     33
                      A                      A                      A
 Frequencies --   1451.4627              1457.1838              1481.5214
 Red. masses --      1.2654                 1.1475                 1.0550
 Frc consts  --      1.5707                 1.4356                 1.3643
 IR Inten    --     12.9811                 5.3297                 6.7402

                     34                     35                     36
                      A                      A                      A
 Frequencies --   1491.9385              1496.8140              1513.1568
 Red. masses --      1.1559                 1.0638                 1.0629
 Frc consts  --      1.5160                 1.4042                 1.4339
 IR Inten    --      5.6770                 6.6514                 6.3059

                     37                     38                     39
                      A                      A                      A
 Frequencies --   1515.3512              1651.1418              3045.4964
 Red. masses --      1.0940                 3.8024                 1.0367
 Frc consts  --      1.4802                 6.1078                 5.6652
 IR Inten    --     12.5324                27.7634                16.2662

                     40                     41                     42
                      A                      A                      A
 Frequencies --   3050.2676              3100.2111              3108.3907
 Red. masses --      1.0276                 1.0989                 1.0541
 Frc consts  --      5.6329                 6.2231                 6.0010
 IR Inten    --     51.2963                14.5296                11.3826

                     43                     44                     45
                      A                      A                      A
 Frequencies --   3129.8065              3137.6960              3149.6682
 Red. masses --      1.1071                 1.1012                 1.1049
 Frc consts  --      6.3895                 6.3878                 6.4581
 IR Inten    --     28.7039                14.5518                13.0424

                     46                     47                     48
                      A                      A                      A
 Frequencies --   3164.1674              3193.3744              3254.7668
 Red. masses --      1.0576                 1.1119                 1.1172
 Frc consts  --      6.2384                 6.6806                 6.9728
 IR Inten    --      7.3401                 7.9560                 7.2486

 - Thermochemistry -
 -------------------
 Temperature   298.150 Kelvin.  Pressure   1.00000 Atm.
 Atom     1 has atomic number  6 and mass  12.00000

 Molecular mass:   103.07590 amu.
 Principal axes and moments of inertia in atomic units:
                           1         2         3
     Eigenvalues --   541.056501164.704611271.87039
           X            0.99968   0.02525  -0.00300
           Y           -0.02507   0.99839   0.05082
           Z            0.00428  -0.05073   0.99870
 This molecule is an asymmetric top.
 Rotational symmetry number  1.
 Warning -- assumption of classical behavior for rotation
           may cause significant error
 Rotational temperatures (Kelvin)      0.16008     0.07437     0.06810
 Rotational constants (GHZ):           3.33559     1.54953     1.41897
    1 imaginary frequencies ignored.
 Zero-point vibrational energy     387021.1 (Joules/Mol)
                                   92.50026 (Kcal/Mol)
 Warning -- explicit consideration of  13 degrees of freedom as
           vibrations may cause significant error
 Vibrational temperatures:     68.78    98.35   128.52   191.00   253.49
          (Kelvin)            258.56   386.06   559.63   617.62   664.66
                              715.55   789.32   837.68   985.75  1227.03
                             1320.98  1336.06  1413.82  1458.46  1484.74
                             1521.21  1562.18  1575.68  1687.63  1731.76
                             1747.58  1921.43  2039.74  2080.62  2088.33
                             2096.56  2131.58  2146.57  2153.58  2177.10
                             2180.25  2375.62  4381.79  4388.65  4460.51
                             4472.28  4503.09  4514.44  4531.67  4552.53
                             4594.55  4682.88

 Zero-point correction=                           0.147409 (Hartree/Particle)
 Thermal correction to Energy=                    0.156986
 Thermal correction to Enthalpy=                  0.157930
 Thermal correction to Gibbs Free Energy=         0.111762
 Sum of electronic and zero-point Energies=           -347.112080
 Sum of electronic and thermal Energies=              -347.102503
 Sum of electronic and thermal Enthalpies=            -347.101558
 Sum of electronic and thermal Free Energies=         -347.147726

                     E (Thermal)             CV                S
                      KCal/Mol        Cal/Mol-Kelvin    Cal/Mol-Kelvin
 Total                   98.510             32.860             97.169
 Electronic               0.000              0.000              1.377
 Translational            0.889              2.981             39.808
 Rotational               0.889              2.981             28.174
 Vibrational             96.733             26.898             27.809
 Vibration     1          0.595              1.978              4.906
 Vibration     2          0.598              1.969              4.200
 Vibration     3          0.602              1.957              3.675
 Vibration     4          0.613              1.921              2.906
 Vibration     5          0.628              1.872              2.368
 Vibration     6          0.629              1.867              2.331
 Vibration     7          0.673              1.731              1.607
 Vibration     8          0.757              1.494              1.004
 Vibration     9          0.791              1.407              0.861
 Vibration    10          0.820              1.334              0.760
 Vibration    11          0.853              1.256              0.665
 Vibration    12          0.904              1.143              0.547
 Vibration    13          0.939              1.070              0.481

 Optimization completed.
    -- Stationary point found.
 Normal termination of Gaussian 16 at Tue Jun 11 03:08:32 2019.
