 Gaussian 16, Revision B.01,
 Gaussian 16:  ES64L-G16RevB.01 20-Dec-2017

 ----------------------------------------------------------------------
 # opt=(calcfc,ts,noeigentest,maxcyc=500) freq=noraman uB2PLYPD3/cc-pvt
 z
 ----------------------------------------------------------------------

 -------------------
 Title Card Required
 -------------------
 Symbolic Z-matrix:
 Charge =  0 Multiplicity = 2

 SCF Done:  E(UB2PLYPD3) =  -348.025016274     A.U. after   19 cycles
 E2(B2PLYPD3) =    -0.4493076105D+00 E(B2PLYPD3) =    -0.34847432388429D+03
 E2(B2PLYPD3) =    -0.4493076105D+00 E(B2PLYPD3) =    -0.34847432388429D+03
 SCF Done:  E(UB2PLYPD3) =  -348.025165929     A.U. after   14 cycles
 E2(B2PLYPD3) =    -0.4497465198D+00 E(B2PLYPD3) =    -0.34847491244894D+03
 SCF Done:  E(UB2PLYPD3) =  -348.025150033     A.U. after   12 cycles
 E2(B2PLYPD3) =    -0.4497778186D+00 E(B2PLYPD3) =    -0.34847492785116D+03
 SCF Done:  E(UB2PLYPD3) =  -348.025171067     A.U. after   12 cycles
 E2(B2PLYPD3) =    -0.4497616728D+00 E(B2PLYPD3) =    -0.34847493273968D+03
 SCF Done:  E(UB2PLYPD3) =  -348.025186800     A.U. after   12 cycles
 E2(B2PLYPD3) =    -0.4497469148D+00 E(B2PLYPD3) =    -0.34847493371481D+03
 SCF Done:  E(UB2PLYPD3) =  -348.025190137     A.U. after   10 cycles
 E2(B2PLYPD3) =    -0.4497436493D+00 E(B2PLYPD3) =    -0.34847493378674D+03
 Optimization completed.
    -- Stationary point found.

 1\1\GINC-N105\FTS\UB2PLYPD3-FC\CC-pVTZ\C5H13O2(2)\ROOT\10-Jun-2019\0\\
 # opt=(calcfc,ts,noeigentest,maxcyc=500) freq=noraman uB2PLYPD3/cc-pvt
 z\\Title Card Required\\0,2\C,1.695068565,-0.0791069579,0.317665833\H,
 1.764761407,-0.4399822919,1.3470418179\C,0.6570916249,-0.8985462527,-0
 .3995858072\H,0.3733297031,-0.5395506674,-1.386976995\H,0.7862018982,-
 1.9765095219,-0.3645706827\C,-2.7080119935,0.7862894693,-0.4986173\H,-
 1.815062257,1.2057847231,-0.9652000592\H,-3.5258583279,0.7672959936,-1
 .2161119885\H,-2.9839894704,1.3817127341,0.3703133635\O,-2.50074824,-0

 Normal termination of Gaussian 16 at Mon Jun 10 13:12:30 2019.

 ----------------------------------------------------------------------
 #N Geom=AllCheck Guess=TCheck SCRF=Check GenChk UB2PLYPD3(FC)/CC-pVTZ
 Freq
 ----------------------------------------------------------------------

 Structure from the checkpoint file:  "/localscratch/346541/Gau-9005.chk"
 -------------------
 Title Card Required
 -------------------
 Charge =  0 Multiplicity = 2

                         Standard orientation:
 ---------------------------------------------------------------------
 Center     Atomic      Atomic             Coordinates (Angstroms)
 Number     Number       Type             X           Y           Z
 ---------------------------------------------------------------------
      1          6           0       -1.694611   -0.070660   -0.310321
      2          1           0       -1.770535   -0.393280   -1.351885
      3          6           0       -0.652680   -0.916152    0.370012
      4          1           0       -0.362940   -0.593888    1.368279
      5          1           0       -0.782370   -1.992071    0.295995
      6          6           0        2.713535    0.763451    0.511174
      7          1           0        1.823515    1.165550    0.998223
      8          1           0        3.535618    0.717879    1.222606
      9          1           0        2.984559    1.390512   -0.336809
     10          8           0        2.503639   -0.577953    0.097490
     11          8           0        1.504677   -0.569010   -0.897740
     12          1           0        0.516941   -0.747741   -0.312139
     13          6           0       -3.064102   -0.298817    0.348696
     14          1           0       -3.042078    0.011783    1.393887
     15          1           0       -3.832700    0.283270   -0.160265
     16          1           0       -3.352807   -1.348300    0.313853
     17          6           0       -1.319529    1.409775   -0.286803
     18          1           0       -0.366791    1.579745   -0.784648
     19          1           0       -2.078900    2.012293   -0.783816
     20          1           0       -1.233724    1.764362    0.742166
 ---------------------------------------------------------------------

 SCF Done:  E(UB2PLYPD3) =  -348.025190137     A.U. after    1 cycles
 E2(B2PLYPD3) =    -0.4497436469D+00 E(B2PLYPD3) =    -0.34847493378438D+03
 E2(B2PLYPD3) =    -0.4497436469D+00 E(B2PLYPD3) =    -0.34847493378438D+03

 The electronic state is 2-A.
 Alpha  occ. eigenvalues --  -19.78298 -19.78222 -10.65871 -10.63496 -10.62915
 Alpha  occ. eigenvalues --  -10.61060 -10.60457  -1.27040  -1.01900  -0.93842
 Alpha  occ. eigenvalues --   -0.80723  -0.79680  -0.77228  -0.66427  -0.60669
 Alpha  occ. eigenvalues --   -0.55582  -0.54919  -0.54235  -0.51455  -0.50719
 Alpha  occ. eigenvalues --   -0.48757  -0.46494  -0.45584  -0.43803  -0.41962
 Alpha  occ. eigenvalues --   -0.40763  -0.39783  -0.36401  -0.36366  -0.29797
 Alpha virt. eigenvalues --    0.07086   0.09076   0.11032   0.11410   0.12324
 Alpha virt. eigenvalues --    0.12977   0.14116   0.14896   0.15727   0.16018
 Alpha virt. eigenvalues --    0.17662   0.19185   0.19820   0.20687   0.21824

  Beta  occ. eigenvalues --  -19.78173 -19.76620 -10.65879 -10.62972 -10.62226
  Beta  occ. eigenvalues --  -10.60940 -10.60445  -1.25204  -0.99042  -0.92924
  Beta  occ. eigenvalues --   -0.79500  -0.78271  -0.76497  -0.65661  -0.57479
  Beta  occ. eigenvalues --   -0.54540  -0.54272  -0.53927  -0.51228  -0.49344
  Beta  occ. eigenvalues --   -0.46610  -0.45761  -0.44922  -0.43023  -0.40924
  Beta  occ. eigenvalues --   -0.40341  -0.39634  -0.35177  -0.33186
  Beta virt. eigenvalues --   -0.04383   0.07228   0.09201   0.11264   0.11585
  Beta virt. eigenvalues --    0.12577   0.13344   0.14212   0.15134   0.15874
  Beta virt. eigenvalues --    0.16089   0.17831   0.19311   0.19880   0.20886

 Mulliken charges and spin densities:
               1          2
     1  C   -0.034675  -0.034079
     2  H    0.107148   0.005202
     3  C   -0.289796   0.659279
     4  H    0.112835  -0.013901
     5  H    0.126803  -0.012729
     6  C   -0.059775  -0.003604
     7  H    0.065730   0.000945
     8  H    0.104663  -0.000820
     9  H    0.083582   0.002392
    10  O   -0.188417   0.022478
    11  O   -0.228620   0.408809
    12  H    0.214663  -0.075571
    13  C   -0.298422   0.029579
    14  H    0.092424  -0.000316
    15  H    0.101743   0.010947
    16  H    0.102312  -0.001177
    17  C   -0.315701   0.004355
    18  H    0.113531  -0.000204
    19  H    0.103828  -0.001281
    20  H    0.086144  -0.000300
 Sum of Mulliken charges =  -0.00000   1.00000

 Dipole moment (field-independent basis, Debye):
    X=             -1.6969    Y=              1.3631    Z=              1.3649  Tot=              2.5692
 Quadrupole moment (field-independent basis, Debye-Ang):
   XX=            -46.1271   YY=            -46.1924   ZZ=            -46.6017
   XY=              5.3703   XZ=              3.4393   YZ=             -0.1600

  Exact polarizability: 119.818   7.337  71.069  -2.702  -0.667  66.783
 Approx polarizability:  99.387   2.867  76.817  -1.200   0.516  81.701

 ******    1 imaginary frequencies (negative Signs) ******

                      1                      2                      3
                      A                      A                      A
 Frequencies --  -1906.0995                29.3580                48.6880
 Red. masses --      1.1067                 3.1570                 2.7167
 Frc consts  --      2.3690                 0.0016                 0.0038
 IR Inten    --   2094.9547                 2.0486                 0.9101

                      4                      5                      6
                      A                      A                      A
 Frequencies --     82.3965               107.1422               173.7053
 Red. masses --      2.7605                 3.3152                 2.1561
 Frc consts  --      0.0110                 0.0224                 0.0383
 IR Inten    --      1.5176                 2.7467                 1.0679

                      7                      8                      9
                      A                      A                      A
 Frequencies --    230.8713               247.8234               264.1583
 Red. masses --      1.0318                 1.5846                 1.0838
 Frc consts  --      0.0324                 0.0573                 0.0446
 IR Inten    --      0.0286                 2.2139                 0.1769

                     10                     11                     12
                      A                      A                      A
 Frequencies --    322.7540               371.4306               420.9491
 Red. masses --      2.4683                 2.1151                 1.8891
 Frc consts  --      0.1515                 0.1719                 0.1972
 IR Inten    --      1.6165                 0.2396                 0.5584

                     13                     14                     15
                      A                      A                      A
 Frequencies --    454.6794               519.0835               614.2290
 Red. masses --      2.4309                 1.4295                 3.0361
 Frc consts  --      0.2961                 0.2269                 0.6749
 IR Inten    --      3.6041                 2.1230                 0.4399

                     16                     17                     18
                      A                      A                      A
 Frequencies --    822.9458               913.0239               929.1545
 Red. masses --      2.7493                 5.2477                 1.2074
 Frc consts  --      1.0970                 2.5774                 0.6142
 IR Inten    --      0.5453                14.8744                 4.5641

                     19                     20                     21
                      A                      A                      A
 Frequencies --    936.6473               959.4780               973.5304
 Red. masses --      1.2680                 1.3411                 1.6342
 Frc consts  --      0.6554                 0.7274                 0.9125
 IR Inten    --      7.4885                 3.5229                 0.0612

                     22                     23                     24
                      A                      A                      A
 Frequencies --   1011.5926              1056.8543              1121.2291
 Red. masses --      1.5222                 5.4594                 1.4741
 Frc consts  --      0.9178                 3.5927                 1.0919
 IR Inten    --     13.6623                31.8440                17.7892

                     25                     26                     27
                      A                      A                      A
 Frequencies --   1177.0762              1178.2942              1201.0852
 Red. masses --      1.4981                 1.2960                 1.7541
 Frc consts  --      1.2229                 1.0601                 1.4909
 IR Inten    --      3.1791                 2.4420                 3.8778

                     28                     29                     30
                      A                      A                      A
 Frequencies --   1217.5240              1219.9026              1344.5924
 Red. masses --      1.5908                 1.7883                 1.3193
 Frc consts  --      1.3894                 1.5680                 1.4054
 IR Inten    --      2.5587                 1.3900                 0.7465

                     31                     32                     33
                      A                      A                      A
 Frequencies --   1378.0514              1404.7029              1423.4327
 Red. masses --      1.4161                 1.2283                 1.2285
 Frc consts  --      1.5844                 1.4279                 1.4666
 IR Inten    --      3.3675                 2.6782                 3.4921

                     34                     35                     36
                      A                      A                      A
 Frequencies --   1453.1221              1460.6360              1474.7158
 Red. masses --      1.0782                 1.1216                 1.1603
 Frc consts  --      1.3414                 1.4098                 1.4867
 IR Inten    --      0.7036                 5.8182                 5.7760

                     37                     38                     39
                      A                      A                      A
 Frequencies --   1481.3461              1502.6405              1503.8736
 Red. masses --      1.0495                 1.0423                 1.0520
 Frc consts  --      1.3569                 1.3866                 1.4019
 IR Inten    --      6.3099                 0.9526                 4.4547

                     40                     41                     42
                      A                      A                      A
 Frequencies --   1515.1615              1519.4180              1525.8561
 Red. masses --      1.0489                 1.0536                 1.0548
 Frc consts  --      1.4188                 1.4331                 1.4470
 IR Inten    --      9.8792                16.5911                 6.4979

                     43                     44                     45
                      A                      A                      A
 Frequencies --   3034.5796              3036.3403              3041.0843
 Red. masses --      1.0328                 1.0748                 1.0357
 Frc consts  --      5.6033                 5.8380                 5.6432
 IR Inten    --     32.4500                 4.3139                29.5630

                     46                     47                     48
                      A                      A                      A
 Frequencies --   3044.7851              3085.3976              3108.0429
 Red. masses --      1.0413                 1.0537                 1.1002
 Frc consts  --      5.6878                 5.9098                 6.2618
 IR Inten    --     32.3423                10.8991                 2.6025

                     49                     50                     51
                      A                      A                      A
 Frequencies --   3110.4601              3114.2919              3121.4570
 Red. masses --      1.1037                 1.1005                 1.1019
 Frc consts  --      6.2914                 6.2885                 6.3259
 IR Inten    --     45.2341                62.1695                25.4429

                     52                     53                     54
                      A                      A                      A
 Frequencies --   3131.5945              3143.4421              3171.8947
 Red. masses --      1.1017                 1.1044                 1.1103
 Frc consts  --      6.3659                 6.4298                 6.5818
 IR Inten    --     18.6496                16.1454                16.6477

 - Thermochemistry -
 -------------------
 Temperature   298.150 Kelvin.  Pressure   1.00000 Atm.
 Atom     1 has atomic number  6 and mass  12.00000

 Molecular mass:   105.09155 amu.
 Principal axes and moments of inertia in atomic units:
                           1         2         3
     Eigenvalues --   373.622421784.985371931.90105
           X            0.99982   0.01786   0.00594
           Y           -0.01773   0.99962  -0.02129
           Z           -0.00632   0.02118   0.99976
 This molecule is an asymmetric top.
 Rotational symmetry number  1.
 Rotational temperatures (Kelvin)      0.23182     0.04852     0.04483
 Rotational constants (GHZ):           4.83039     1.01107     0.93418
    1 imaginary frequencies ignored.
 Zero-point vibrational energy     447023.7 (Joules/Mol)
                                  106.84123 (Kcal/Mol)
 Warning -- explicit consideration of  14 degrees of freedom as
           vibrations may cause significant error
 Vibrational temperatures:     42.24    70.05   118.55   154.15   249.92
          (Kelvin)            332.17   356.56   380.06   464.37   534.41
                              605.65   654.18   746.85   883.74  1184.04
                             1313.64  1336.85  1347.63  1380.47  1400.69
                             1455.46  1520.58  1613.20  1693.55  1695.30
                             1728.09  1751.75  1755.17  1934.57  1982.71
                             2021.05  2048.00  2090.72  2101.53  2121.79
                             2131.33  2161.96  2163.74  2179.98  2186.10
                             2195.37  4366.08  4368.62  4375.44  4380.77
                             4439.20  4471.78  4475.26  4480.77  4491.08
                             4505.67  4522.71  4563.65

 Zero-point correction=                           0.170262 (Hartree/Particle)
 Thermal correction to Energy=                    0.180570
 Thermal correction to Enthalpy=                  0.181514
 Thermal correction to Gibbs Free Energy=         0.133095
 Sum of electronic and zero-point Energies=           -348.304671
 Sum of electronic and thermal Energies=              -348.294364
 Sum of electronic and thermal Enthalpies=            -348.293420
 Sum of electronic and thermal Free Energies=         -348.341839

                     E (Thermal)             CV                S
                      KCal/Mol        Cal/Mol-Kelvin    Cal/Mol-Kelvin
 Total                  113.309             35.102            101.906
 Electronic               0.000              0.000              1.377
 Translational            0.889              2.981             39.866
 Rotational               0.889              2.981             28.645
 Vibrational            111.532             29.141             32.017
 Vibration     1          0.593              1.984              5.872
 Vibration     2          0.595              1.978              4.870
 Vibration     3          0.600              1.961              3.833
 Vibration     4          0.606              1.944              3.320
 Vibration     5          0.627              1.875              2.395
 Vibration     6          0.653              1.794              1.872
 Vibration     7          0.661              1.766              1.746
 Vibration     8          0.671              1.739              1.634
 Vibration     9          0.708              1.630              1.296
 Vibration    10          0.743              1.531              1.074
 Vibration    11          0.783              1.425              0.889
 Vibration    12          0.813              1.351              0.782
 Vibration    13          0.874              1.208              0.612
 Vibration    14          0.974              1.002              0.426

 Optimization completed.
    -- Stationary point found.
 Normal termination of Gaussian 16 at Mon Jun 10 15:59:38 2019.
