 Gaussian 16, Revision B.01,
 Gaussian 16:  ES64L-G16RevB.01 20-Dec-2017

 ----------------------------------------------------------------------
 # opt=(calcfc,ts,noeigentest,maxcyc=500) freq=noraman uB2PLYPD3/cc-pvt
 z
 ----------------------------------------------------------------------

 -------------------
 Title Card Required
 -------------------
 Symbolic Z-matrix:
 Charge =  0 Multiplicity = 2

 SCF Done:  E(UB2PLYPD3) =  -348.033343048     A.U. after   19 cycles
 E2(B2PLYPD3) =    -0.4511295534D+00 E(B2PLYPD3) =    -0.34848447260178D+03
 E2(B2PLYPD3) =    -0.4511295534D+00 E(B2PLYPD3) =    -0.34848447260178D+03
 SCF Done:  E(UB2PLYPD3) =  -348.033325265     A.U. after   15 cycles
 E2(B2PLYPD3) =    -0.4511514562D+00 E(B2PLYPD3) =    -0.34848447672095D+03
 SCF Done:  E(UB2PLYPD3) =  -348.033327557     A.U. after   12 cycles
 E2(B2PLYPD3) =    -0.4511496838D+00 E(B2PLYPD3) =    -0.34848447724056D+03
 SCF Done:  E(UB2PLYPD3) =  -348.033316786     A.U. after   13 cycles
 E2(B2PLYPD3) =    -0.4511604978D+00 E(B2PLYPD3) =    -0.34848447728337D+03
 SCF Done:  E(UB2PLYPD3) =  -348.033323856     A.U. after   12 cycles
 E2(B2PLYPD3) =    -0.4511535274D+00 E(B2PLYPD3) =    -0.34848447738325D+03
 Optimization completed on the basis of negligible forces.
    -- Stationary point found.

 1\1\GINC-N145\FTS\UB2PLYPD3-FC\CC-pVTZ\C5H13O2(2)\ROOT\25-Jun-2019\0\\
 # opt=(calcfc,ts,noeigentest,maxcyc=500) freq=noraman uB2PLYPD3/cc-pvt
 z\\Title Card Required\\0,2\C,1.9056195401,-0.2897805661,1.0882254404\
 H,1.9413177484,0.2480030674,2.0340972829\H,1.4524920613,-1.2642008454,
 1.2647416356\C,1.140450384,0.484769277,0.0438862567\C,-2.5876723181,-0
 .5758707595,-0.1913745703\H,-2.080977272,-0.2693829681,-1.1065237328\H
 ,-3.0120688379,-1.5700796328,-0.3168489737\H,-3.3718225756,0.138373935
 6,0.05428727\O,-1.6674609603,-0.6956720497,0.8850647889\O,-1.131766920

 Normal termination of Gaussian 16 at Tue Jun 25 01:34:08 2019.

 ----------------------------------------------------------------------
 #N Geom=AllCheck Guess=TCheck SCRF=Check GenChk UB2PLYPD3(FC)/CC-pVTZ
 Freq
 ----------------------------------------------------------------------

 Structure from the checkpoint file:  "/localscratch/353445/Gau-49711.chk"
 -------------------
 Title Card Required
 -------------------
 Charge =  0 Multiplicity = 2

                         Standard orientation:
 ---------------------------------------------------------------------
 Center     Atomic      Atomic             Coordinates (Angstroms)
 Number     Number       Type             X           Y           Z
 ---------------------------------------------------------------------
      1          6           0       -1.616370   -0.874494    1.098076
      2          1           0       -1.749948   -1.881508    0.706618
      3          1           0       -0.886286   -0.914429    1.905145
      4          6           0       -1.179799    0.082442    0.016533
      5          6           0        2.673145    0.545434   -0.123711
      6          1           0        2.042741    1.401101   -0.365778
      7          1           0        3.362868    0.806729    0.676486
      8          1           0        3.225846    0.231330   -1.007592
      9          8           0        1.897880   -0.530293    0.387797
     10          8           0        1.026277   -0.953927   -0.633423
     11          1           0       -0.030374   -0.429035   -0.357798
     12          1           0       -2.571638   -0.551114    1.525781
     13          6           0       -2.018227    0.052201   -1.237251
     14          1           0       -1.583517    0.668329   -2.023149
     15          1           0       -2.130085   -0.962683   -1.616478
     16          1           0       -3.021821    0.439281   -1.029397
     17          6           0       -0.826715    1.461998    0.513993
     18          1           0       -0.455540    2.095973   -0.290122
     19          1           0       -1.713699    1.947757    0.935129
     20          1           0       -0.074015    1.416543    1.300318
 ---------------------------------------------------------------------

 SCF Done:  E(UB2PLYPD3) =  -348.033323856     A.U. after    1 cycles
 E2(B2PLYPD3) =    -0.4511535255D+00 E(B2PLYPD3) =    -0.34848447738144D+03
 E2(B2PLYPD3) =    -0.4511535255D+00 E(B2PLYPD3) =    -0.34848447738144D+03

 The electronic state is 2-A.
 Alpha  occ. eigenvalues --  -19.78268 -19.77976 -10.65730 -10.64255 -10.61068
 Alpha  occ. eigenvalues --  -10.61021 -10.60601  -1.26846  -1.01431  -0.94054
 Alpha  occ. eigenvalues --   -0.80414  -0.80106  -0.77254  -0.66380  -0.59612
 Alpha  occ. eigenvalues --   -0.55414  -0.54126  -0.53009  -0.51688  -0.51566
 Alpha  occ. eigenvalues --   -0.48106  -0.46222  -0.45891  -0.43879  -0.43675
 Alpha  occ. eigenvalues --   -0.40842  -0.40781  -0.36588  -0.35416  -0.28423
 Alpha virt. eigenvalues --    0.07042   0.09661   0.11294   0.12225   0.13181
 Alpha virt. eigenvalues --    0.13556   0.14111   0.14873   0.16409   0.17192
 Alpha virt. eigenvalues --    0.18308   0.18798   0.19491   0.20271   0.21456

  Beta  occ. eigenvalues --  -19.78117 -19.76198 -10.65739 -10.63100 -10.61115
  Beta  occ. eigenvalues --  -10.61067 -10.60651  -1.24848  -0.98283  -0.92236
  Beta  occ. eigenvalues --   -0.80245  -0.79948  -0.76831  -0.63201  -0.56973
  Beta  occ. eigenvalues --   -0.54316  -0.53757  -0.51515  -0.51306  -0.51223
  Beta  occ. eigenvalues --   -0.45684  -0.45462  -0.44088  -0.43794  -0.42575
  Beta  occ. eigenvalues --   -0.40477  -0.40417  -0.34867  -0.32312
  Beta virt. eigenvalues --   -0.03639   0.07142   0.09728   0.11548   0.12288
  Beta virt. eigenvalues --    0.13446   0.13797   0.14227   0.15211   0.16519
  Beta virt. eigenvalues --    0.17371   0.18528   0.19032   0.19623   0.20842

 Mulliken charges and spin densities:
               1          2
     1  C   -0.296815  -0.024793
     2  H    0.107352   0.002828
     3  H    0.113503   0.003632
     4  C   -0.000964   0.526438
     5  C   -0.059842  -0.004032
     6  H    0.068512   0.002308
     7  H    0.094843  -0.001103
     8  H    0.093349   0.001824
     9  O   -0.195125   0.025165
    10  O   -0.233342   0.459797
    11  H    0.207853  -0.066639
    12  H    0.092210   0.035002
    13  C   -0.301028  -0.021817
    14  H    0.105006   0.003086
    15  H    0.109885   0.003488
    16  H    0.096011   0.036161
    17  C   -0.326547  -0.024122
    18  H    0.104542   0.002258
    19  H    0.103129   0.036211
    20  H    0.117467   0.004309
 Sum of Mulliken charges =  -0.00000   1.00000

 Dipole moment (field-independent basis, Debye):
    X=             -0.9644    Y=              2.0839    Z=              0.0753  Tot=              2.2975
 Quadrupole moment (field-independent basis, Debye-Ang):
   XX=            -41.8673   YY=            -47.3122   ZZ=            -46.5757
   XY=              3.9154   XZ=             -0.2308   YZ=             -0.2388

  Exact polarizability: 116.554  -2.773  71.883  -1.872   1.505  70.399
 Approx polarizability: 101.435  -4.395  80.374   0.183   3.084  80.071

 ******    1 imaginary frequencies (negative Signs) ******

                      1                      2                      3
                      A                      A                      A
 Frequencies --  -1823.8822                 8.1990                82.3983
 Red. masses --      1.1214                 3.3959                 2.5738
 Frc consts  --      2.1980                 0.0001                 0.0103
 IR Inten    --   2237.3111                 1.9777                 0.5493

                      4                      5                      6
                      A                      A                      A
 Frequencies --    109.0168               132.0926               184.8583
 Red. masses --      2.5773                 3.0796                 1.4579
 Frc consts  --      0.0180                 0.0317                 0.0294
 IR Inten    --      3.1343                 2.0838                 0.5606

                      7                      8                      9
                      A                      A                      A
 Frequencies --    188.2194               217.6658               231.4965
 Red. masses --      1.0634                 1.0998                 1.3061
 Frc consts  --      0.0222                 0.0307                 0.0412
 IR Inten    --      0.0872                 0.0228                 2.6921

                     10                     11                     12
                      A                      A                      A
 Frequencies --    238.4868               346.7837               371.5666
 Red. masses --      1.5740                 2.6205                 2.0408
 Frc consts  --      0.0527                 0.1857                 0.1660
 IR Inten    --      3.6971                 0.9236                 0.2577

                     13                     14                     15
                      A                      A                      A
 Frequencies --    382.0662               463.4317               568.2470
 Red. masses --      2.2814                 3.5622                 3.4329
 Frc consts  --      0.1962                 0.4508                 0.6531
 IR Inten    --      0.2521                 6.1899                 3.1718

                     16                     17                     18
                      A                      A                      A
 Frequencies --    805.1520               918.9390               936.6139
 Red. masses --      2.9422                 4.8915                 1.2648
 Frc consts  --      1.1238                 2.4337                 0.6537
 IR Inten    --      1.1325                10.0820                 0.5743

                     19                     20                     21
                      A                      A                      A
 Frequencies --    944.2309               973.0140              1006.5222
 Red. masses --      1.3410                 1.2085                 1.6342
 Frc consts  --      0.7044                 0.6741                 0.9754
 IR Inten    --      0.0466                 0.0069                 0.2998

                     22                     23                     24
                      A                      A                      A
 Frequencies --   1019.5273              1055.2162              1126.0407
 Red. masses --      1.6288                 7.5743                 1.0953
 Frc consts  --      0.9975                 4.9691                 0.8182
 IR Inten    --      0.2947                46.5473                12.2798

                     25                     26                     27
                      A                      A                      A
 Frequencies --   1178.8996              1200.4052              1217.5601
 Red. masses --      1.2673                 1.9109                 1.6233
 Frc consts  --      1.0378                 1.6223                 1.4179
 IR Inten    --      2.0086                33.6425                 5.7672

                     28                     29                     30
                      A                      A                      A
 Frequencies --   1271.5425              1284.0604              1401.8843
 Red. masses --      2.6080                 2.6867                 1.2540
 Frc consts  --      2.4844                 2.6100                 1.4520
 IR Inten    --      8.5505                 3.0192                10.7184

                     31                     32                     33
                      A                      A                      A
 Frequencies --   1404.7066              1426.4343              1456.9734
 Red. masses --      1.2553                 1.2177                 1.1232
 Frc consts  --      1.4594                 1.4598                 1.4048
 IR Inten    --     10.0337                 0.6186                 2.3380

                     34                     35                     36
                      A                      A                      A
 Frequencies --   1460.7320              1478.1699              1482.2974
 Red. masses --      1.1061                 1.0458                 1.0493
 Frc consts  --      1.3906                 1.3463                 1.3584
 IR Inten    --      2.1938                 0.3637                 5.0997

                     37                     38                     39
                      A                      A                      A
 Frequencies --   1493.2189              1494.2456              1503.7202
 Red. masses --      1.0514                 1.0484                 1.0584
 Frc consts  --      1.3812                 1.3792                 1.4101
 IR Inten    --      1.4118                 0.2882                 4.2694

                     40                     41                     42
                      A                      A                      A
 Frequencies --   1504.5837              1517.1526              1524.3278
 Red. masses --      1.0631                 1.0521                 1.0553
 Frc consts  --      1.4179                 1.4268                 1.4447
 IR Inten    --      6.4062                 5.2554                14.6899

                     43                     44                     45
                      A                      A                      A
 Frequencies --   3011.1901              3011.5617              3017.6299
 Red. masses --      1.0470                 1.0474                 1.0478
 Frc consts  --      5.5933                 5.5971                 5.6216
 IR Inten    --     13.1598                12.0719                70.9744

                     46                     47                     48
                      A                      A                      A
 Frequencies --   3042.3645              3087.3696              3090.4850
 Red. masses --      1.0285                 1.0848                 1.0843
 Frc consts  --      5.6091                 6.0922                 6.1017
 IR Inten    --     45.6335                15.1386                17.4830

                     49                     50                     51
                      A                      A                      A
 Frequencies --   3095.5426              3118.9276              3124.1050
 Red. masses --      1.0841                 1.1062                 1.1030
 Frc consts  --      6.1209                 6.3401                 6.3430
 IR Inten    --     16.9979                34.7844                 4.2152

                     52                     53                     54
                      A                      A                      A
 Frequencies --   3127.1961              3131.5016              3142.9498
 Red. masses --      1.1022                 1.1023                 1.1047
 Frc consts  --      6.3507                 6.3687                 6.4294
 IR Inten    --     31.6456                23.5745                16.2676

 - Thermochemistry -
 -------------------
 Temperature   298.150 Kelvin.  Pressure   1.00000 Atm.
 Atom     1 has atomic number  6 and mass  12.00000

 Molecular mass:   105.09155 amu.
 Principal axes and moments of inertia in atomic units:
                           1         2         3
     Eigenvalues --   501.428181374.950881421.63919
           X            0.99961   0.02770  -0.00380
           Y           -0.02793   0.99580  -0.08721
           Z            0.00137   0.08728   0.99618
 This molecule is an asymmetric top.
 Rotational symmetry number  1.
 Warning -- assumption of classical behavior for rotation
           may cause significant error
 Rotational temperatures (Kelvin)      0.17273     0.06299     0.06093
 Rotational constants (GHZ):           3.59920     1.31259     1.26948
    1 imaginary frequencies ignored.
 Zero-point vibrational energy     446276.0 (Joules/Mol)
                                  106.66253 (Kcal/Mol)
 Warning -- explicit consideration of  14 degrees of freedom as
           vibrations may cause significant error
 Vibrational temperatures:     11.80   118.55   156.85   190.05   265.97
          (Kelvin)            270.81   313.17   333.07   343.13   498.94
                              534.60   549.71   666.77   817.58  1158.43
                             1322.15  1347.58  1358.54  1399.95  1448.16
                             1466.87  1518.22  1620.12  1696.17  1727.12
                             1751.80  1829.47  1847.48  2017.00  2021.06
                             2052.32  2096.26  2101.67  2126.76  2132.70
                             2148.41  2149.89  2163.52  2164.76  2182.84
                             2193.17  4332.43  4332.97  4341.70  4377.28
                             4442.04  4446.52  4453.80  4487.44  4494.89
                             4499.34  4505.53  4522.00

 Zero-point correction=                           0.169978 (Hartree/Particle)
 Thermal correction to Energy=                    0.180602
 Thermal correction to Enthalpy=                  0.181547
 Thermal correction to Gibbs Free Energy=         0.132070
 Sum of electronic and zero-point Energies=           -348.314500
 Sum of electronic and thermal Energies=              -348.303875
 Sum of electronic and thermal Enthalpies=            -348.302931
 Sum of electronic and thermal Free Energies=         -348.352407

                     E (Thermal)             CV                S
                      KCal/Mol        Cal/Mol-Kelvin    Cal/Mol-Kelvin
 Total                  113.330             35.672            104.132
 Electronic               0.000              0.000              1.377
 Translational            0.889              2.981             39.866
 Rotational               0.889              2.981             28.374
 Vibrational            111.552             29.710             34.515
 Vibration     1          0.593              1.987              8.406
 Vibration     2          0.600              1.961              3.833
 Vibration     3          0.606              1.942              3.286
 Vibration     4          0.612              1.921              2.915
 Vibration     5          0.631              1.861              2.279
 Vibration     6          0.633              1.856              2.245
 Vibration     7          0.646              1.814              1.978
 Vibration     8          0.653              1.793              1.867
 Vibration     9          0.656              1.782              1.814
 Vibration    10          0.725              1.582              1.181
 Vibration    11          0.743              1.531              1.073
 Vibration    12          0.752              1.508              1.031
 Vibration    13          0.821              1.331              0.756
 Vibration    14          0.924              1.100              0.508

 Optimization completed on the basis of negligible forces.
    -- Stationary point found.
 Normal termination of Gaussian 16 at Tue Jun 25 04:27:09 2019.
