 Gaussian 16, Revision B.01,
 Gaussian 16:  ES64L-G16RevB.01 20-Dec-2017

 ----------------------------------------------------------------------
 # opt=(calcfc,ts,noeigentest,maxcyc=500,modredundant) uB2PLYPD3/cc-pvt
 z scf=maxcyc=500 nosymm
 ----------------------------------------------------------------------

 -------------------
 Title Card Required
 -------------------
 Symbolic Z-matrix:
 Charge =  0 Multiplicity = 2

 SCF Done:  E(UB2PLYPD3) =  -306.340437129     A.U. after   21 cycles
 E2(B2PLYPD3) =    -0.3776569158D+00 E(B2PLYPD3) =    -0.30671809404516D+03
 E2(B2PLYPD3) =    -0.3776569158D+00 E(B2PLYPD3) =    -0.30671809404516D+03

  Exact polarizability:  95.752   2.928  74.207   1.039  -4.324  43.156
 Approx polarizability:  79.747   8.627  92.840   2.928  -7.628  51.909

 Optimization completed.
    -- Stationary point found.
 SCF Done:  E(UB2PLYPD3) =  -306.340129327     A.U. after   17 cycles
 E2(B2PLYPD3) =    -0.3777189190D+00 E(B2PLYPD3) =    -0.30671784824568D+03
 SCF Done:  E(UB2PLYPD3) =  -306.340533477     A.U. after   15 cycles
 E2(B2PLYPD3) =    -0.3774184237D+00 E(B2PLYPD3) =    -0.30671795190110D+03
 SCF Done:  E(UB2PLYPD3) =  -306.340457725     A.U. after   14 cycles
 E2(B2PLYPD3) =    -0.3775114305D+00 E(B2PLYPD3) =    -0.30671796915595D+03
 SCF Done:  E(UB2PLYPD3) =  -306.340444439     A.U. after   10 cycles
 E2(B2PLYPD3) =    -0.3775252544D+00 E(B2PLYPD3) =    -0.30671796969386D+03
 SCF Done:  E(UB2PLYPD3) =  -306.340441153     A.U. after   10 cycles
 E2(B2PLYPD3) =    -0.3775287133D+00 E(B2PLYPD3) =    -0.30671796986643D+03
 Optimization completed.
 SCF Done:  E(UB2PLYPD3) =  -306.340036174     A.U. after   16 cycles
 E2(B2PLYPD3) =    -0.3774992106D+00 E(B2PLYPD3) =    -0.30671753538435D+03
 SCF Done:  E(UB2PLYPD3) =  -306.340444578     A.U. after   15 cycles
 E2(B2PLYPD3) =    -0.3771847012D+00 E(B2PLYPD3) =    -0.30671762927954D+03
 SCF Done:  E(UB2PLYPD3) =  -306.340365987     A.U. after   14 cycles
 E2(B2PLYPD3) =    -0.3772843371D+00 E(B2PLYPD3) =    -0.30671765032396D+03
 SCF Done:  E(UB2PLYPD3) =  -306.340352392     A.U. after   10 cycles
 E2(B2PLYPD3) =    -0.3772982574D+00 E(B2PLYPD3) =    -0.30671765064908D+03
 E2(B2PLYPD3) =    -0.3773018018D+00 E(B2PLYPD3) =    -0.30671765115377D+03
 E2(B2PLYPD3) =    -0.3772010817D+00 E(B2PLYPD3) =    -0.30671714357942D+03
 E2(B2PLYPD3) =    -0.3769587349D+00 E(B2PLYPD3) =    -0.30671722256056D+03
 E2(B2PLYPD3) =    -0.3770098117D+00 E(B2PLYPD3) =    -0.30671723254949D+03
 E2(B2PLYPD3) =    -0.3770193573D+00 E(B2PLYPD3) =    -0.30671723284546D+03
 E2(B2PLYPD3) =    -0.3768845397D+00 E(B2PLYPD3) =    -0.30671675746254D+03
 E2(B2PLYPD3) =    -0.3767465041D+00 E(B2PLYPD3) =    -0.30671681527870D+03
 E2(B2PLYPD3) =    -0.3767474018D+00 E(B2PLYPD3) =    -0.30671681786302D+03
 E2(B2PLYPD3) =    -0.3767382201D+00 E(B2PLYPD3) =    -0.30671681835078D+03
 E2(B2PLYPD3) =    -0.3768857572D+00 E(B2PLYPD3) =    -0.30671641241628D+03
 E2(B2PLYPD3) =    -0.3768858678D+00 E(B2PLYPD3) =    -0.30671641258941D+03
 E2(B2PLYPD3) =    -0.3768867674D+00 E(B2PLYPD3) =    -0.30671641256131D+03
 E2(B2PLYPD3) =    -0.3770642978D+00 E(B2PLYPD3) =    -0.30671697053543D+03
 E2(B2PLYPD3) =    -0.3772473665D+00 E(B2PLYPD3) =    -0.30671700116600D+03
 E2(B2PLYPD3) =    -0.3772159022D+00 E(B2PLYPD3) =    -0.30671700195695D+03
 E2(B2PLYPD3) =    -0.3772186654D+00 E(B2PLYPD3) =    -0.30671700190766D+03
 E2(B2PLYPD3) =    -0.3774284957D+00 E(B2PLYPD3) =    -0.30671755987586D+03
 E2(B2PLYPD3) =    -0.3775285178D+00 E(B2PLYPD3) =    -0.30671757358017D+03
 E2(B2PLYPD3) =    -0.3775093059D+00 E(B2PLYPD3) =    -0.30671757384899D+03
 SCF Done:  E(UB2PLYPD3) =  -306.340212345     A.U. after   15 cycles
 E2(B2PLYPD3) =    -0.3777164574D+00 E(B2PLYPD3) =    -0.30671792880232D+03
 SCF Done:  E(UB2PLYPD3) =  -306.340376288     A.U. after   15 cycles
 E2(B2PLYPD3) =    -0.3775718956D+00 E(B2PLYPD3) =    -0.30671794818349D+03
 SCF Done:  E(UB2PLYPD3) =  -306.340297745     A.U. after   14 cycles
 E2(B2PLYPD3) =    -0.3776653290D+00 E(B2PLYPD3) =    -0.30671796307396D+03
 SCF Done:  E(UB2PLYPD3) =  -306.340310414     A.U. after   12 cycles
 E2(B2PLYPD3) =    -0.3776531899D+00 E(B2PLYPD3) =    -0.30671796360442D+03
 SCF Done:  E(UB2PLYPD3) =  -306.340304030     A.U. after   10 cycles
 E2(B2PLYPD3) =    -0.3776597132D+00 E(B2PLYPD3) =    -0.30671796374295D+03
    -- Stationary point found.
 SCF Done:  E(UB2PLYPD3) =  -306.340193196     A.U. after   16 cycles
 E2(B2PLYPD3) =    -0.3778119076D+00 E(B2PLYPD3) =    -0.30671800510313D+03
 SCF Done:  E(UB2PLYPD3) =  -306.340563689     A.U. after   16 cycles
 E2(B2PLYPD3) =    -0.3774949248D+00 E(B2PLYPD3) =    -0.30671805861423D+03
 SCF Done:  E(UB2PLYPD3) =  -306.340461586     A.U. after   14 cycles
 E2(B2PLYPD3) =    -0.3776300709D+00 E(B2PLYPD3) =    -0.30671809165724D+03
 SCF Done:  E(UB2PLYPD3) =  -306.340433125     A.U. after   12 cycles
 E2(B2PLYPD3) =    -0.3776596110D+00 E(B2PLYPD3) =    -0.30671809273617D+03
 SCF Done:  E(UB2PLYPD3) =  -306.340437175     A.U. after    8 cycles
 E2(B2PLYPD3) =    -0.3776555399D+00 E(B2PLYPD3) =    -0.30671809271517D+03
 Optimization completed.
    -- Stationary point found.

                          Input orientation:
 ---------------------------------------------------------------------
 Center     Atomic      Atomic             Coordinates (Angstroms)
 Number     Number       Type             X           Y           Z
 ---------------------------------------------------------------------
      1          6           0        1.349261    0.718031   -0.875279
      2          1           0        1.879820    1.657225   -0.991510
      3          1           0        1.203674    0.176998   -1.804075
      4          6           0       -1.790824   -0.471944    0.714957
      5          1           0       -1.142508   -1.104848    0.110100
      6          1           0       -1.953520   -0.929404    1.687982
      7          1           0       -2.739102   -0.307353    0.207230
      8          8           0       -1.156384    0.774420    0.990172
      9          8           0       -0.985105    1.449711   -0.215695
     10          1           0        0.100631    1.140441   -0.563177
     11          6           0        1.714170   -0.059161    0.243240
     12          6           0        1.950793   -0.710003    1.237203
     13          1           0        2.185921   -1.277139    2.101318
 ---------------------------------------------------------------------

 Alpha  occ. eigenvalues --  -19.79328 -19.78935 -10.66052 -10.65878 -10.63644
 Alpha  occ. eigenvalues --  -10.63109  -1.28489  -1.02022  -0.91936  -0.83152
 Alpha  occ. eigenvalues --   -0.77724  -0.63262  -0.61440  -0.56431  -0.55142
 Alpha  occ. eigenvalues --   -0.54917  -0.52809  -0.50376  -0.44549  -0.41498
 Alpha  occ. eigenvalues --   -0.36820  -0.35977  -0.33859  -0.29240
 Alpha virt. eigenvalues --    0.07912   0.08411   0.09555   0.10467   0.11459
 Alpha virt. eigenvalues --    0.13721   0.14832   0.15507   0.17005   0.20214
 Alpha virt. eigenvalues --    0.22890   0.25743   0.27886   0.29853   0.30951

  Beta  occ. eigenvalues --  -19.79027 -19.77360 -10.66067 -10.64821 -10.64056
  Beta  occ. eigenvalues --  -10.62477  -1.26459  -0.99115  -0.90800  -0.80640
  Beta  occ. eigenvalues --   -0.77183  -0.62427  -0.58246  -0.55173  -0.54680
  Beta  occ. eigenvalues --   -0.54298  -0.52314  -0.47552  -0.43678  -0.37013
  Beta  occ. eigenvalues --   -0.35591  -0.33538  -0.31759
  Beta virt. eigenvalues --   -0.07077   0.08116   0.08509   0.10012   0.10669
  Beta virt. eigenvalues --    0.12601   0.14386   0.15058   0.15564   0.17147
  Beta virt. eigenvalues --    0.21039   0.23156   0.25991   0.28830   0.30689

 Mulliken charges and spin densities:
               1          2
     1  C   -0.316957   0.524259
     2  H    0.140799  -0.015048
     3  H    0.133353  -0.015145
     4  C   -0.064151  -0.007247
     5  H    0.076991   0.003499
     6  H    0.095980  -0.000795
     7  H    0.097903   0.001831
     8  O   -0.170324   0.058764
     9  O   -0.220623   0.412322
    10  H    0.217872  -0.084886
    11  C   -0.003666  -0.234230
    12  C   -0.160025   0.368587
    13  H    0.172848  -0.011911
 Sum of Mulliken charges =  -0.00000   1.00000

 Dipole moment (field-independent basis, Debye):
    X=              0.7236    Y=             -2.0466    Z=             -0.4670  Tot=              2.2204
 Quadrupole moment (field-independent basis, Debye-Ang):
   XX=            -35.4802   YY=            -37.8945   ZZ=            -33.2921
   XY=              3.7180   XZ=             -0.2219   YZ=             -4.3571

 1\1\GINC-N185\Scan\UB2PLYPD3-FC\CC-pVTZ\C4H7O2(2)\ROOT\17-Jun-2019\0\\
 # opt=(calcfc,ts,noeigentest,maxcyc=500,modredundant) uB2PLYPD3/cc-pvt
 z scf=maxcyc=500 nosymm\\Title Card Required\\0,2\C,1.3492605025,0.718
 0307321,-0.8752786535\H,1.8798202053,1.6572252074,-0.9915103091\H,1.20
 36739958,0.1769977286,-1.8040748016\C,-1.7908236302,-0.4719440631,0.71
 49571266\H,-1.1425080176,-1.1048476557,0.1100998408\H,-1.9535204308,-0
 .9294041408,1.6879820644\H,-2.7391019085,-0.3073527981,0.2072297534\O,
 -1.1563837436,0.7744195885,0.990171849\O,-0.9851045245,1.4497110687,-0

 Normal termination of Gaussian 16 at Mon Jun 17 16:41:10 2019.
