 Gaussian 16, Revision B.01,
 Gaussian 16:  ES64L-G16RevB.01 20-Dec-2017

 ----------------------------------------------------------------------
 # opt=(calcfc,ts,noeigentest,maxcyc=500) freq=noraman uB2PLYPD3/cc-pvt
 z
 ----------------------------------------------------------------------

 -------------------
 Title Card Required
 -------------------
 Symbolic Z-matrix:
 Charge =  0 Multiplicity = 2

 SCF Done:  E(UB2PLYPD3) =  -306.340452848     A.U. after   22 cycles
 E2(B2PLYPD3) =    -0.3770419733D+00 E(B2PLYPD3) =    -0.30671749482144D+03
 E2(B2PLYPD3) =    -0.3770419733D+00 E(B2PLYPD3) =    -0.30671749482144D+03
 SCF Done:  E(UB2PLYPD3) =  -306.340453756     A.U. after   18 cycles
 E2(B2PLYPD3) =    -0.3776330160D+00 E(B2PLYPD3) =    -0.30671808677249D+03
 SCF Done:  E(UB2PLYPD3) =  -306.340429232     A.U. after   13 cycles
 E2(B2PLYPD3) =    -0.3776646048D+00 E(B2PLYPD3) =    -0.30671809383680D+03
 SCF Done:  E(UB2PLYPD3) =  -306.340437125     A.U. after   10 cycles
 E2(B2PLYPD3) =    -0.3776569215D+00 E(B2PLYPD3) =    -0.30671809404650D+03
 Optimization completed.
    -- Stationary point found.
 Normal termination of Gaussian 16 at Tue Jun 11 10:28:54 2019.

 ----------------------------------------------------------------------
 #N Geom=AllCheck Guess=TCheck SCRF=Check GenChk UB2PLYPD3(FC)/CC-pVTZ
 Freq
 ----------------------------------------------------------------------

 Structure from the checkpoint file:  "/localscratch/346541/Gau-17312.chk"
 -------------------
 Title Card Required
 -------------------
 Charge =  0 Multiplicity = 2

                         Standard orientation:
 ---------------------------------------------------------------------
 Center     Atomic      Atomic             Coordinates (Angstroms)
 Number     Number       Type             X           Y           Z
 ---------------------------------------------------------------------
      1          6           0        1.336370   -1.192242    0.331563
      2          1           0        1.743879   -1.950340   -0.328975
      3          1           0        1.340555   -1.473192    1.379241
      4          6           0       -1.733607    0.888694    0.543874
      5          1           0       -0.958157    0.875588    1.308881
      6          1           0       -1.912867    1.909378    0.214342
      7          1           0       -2.650263    0.444770    0.926988
      8          8           0       -1.297892    0.191857   -0.620707
      9          8           0       -1.120993   -1.147877   -0.283981
     10          1           0        0.021177   -1.219230    0.008494
     11          6           0        1.710057    0.136988    0.045588
     12          6           0        1.950254    1.293595   -0.222953
     13          1           0        2.188315    2.298985   -0.459889
 ---------------------------------------------------------------------

 SCF Done:  E(UB2PLYPD3) =  -306.340437125     A.U. after    1 cycles
 E2(B2PLYPD3) =    -0.3776569306D+00 E(B2PLYPD3) =    -0.30671809405568D+03
 E2(B2PLYPD3) =    -0.3776569306D+00 E(B2PLYPD3) =    -0.30671809405568D+03

 The electronic state is 2-A.
 Alpha  occ. eigenvalues --  -19.79328 -19.78936 -10.66052 -10.65879 -10.63645
 Alpha  occ. eigenvalues --  -10.63110  -1.28487  -1.02023  -0.91937  -0.83154
 Alpha  occ. eigenvalues --   -0.77724  -0.63263  -0.61441  -0.56431  -0.55142
 Alpha  occ. eigenvalues --   -0.54917  -0.52809  -0.50375  -0.44549  -0.41500
 Alpha  occ. eigenvalues --   -0.36819  -0.35977  -0.33860  -0.29242
 Alpha virt. eigenvalues --    0.07911   0.08410   0.09554   0.10467   0.11459
 Alpha virt. eigenvalues --    0.13721   0.14833   0.15507   0.17005   0.20214
 Alpha virt. eigenvalues --    0.22893   0.25741   0.27887   0.29852   0.30949

  Beta  occ. eigenvalues --  -19.79027 -19.77361 -10.66067 -10.64822 -10.64057
  Beta  occ. eigenvalues --  -10.62478  -1.26457  -0.99115  -0.90802  -0.80641
  Beta  occ. eigenvalues --   -0.77183  -0.62428  -0.58245  -0.55175  -0.54679
  Beta  occ. eigenvalues --   -0.54298  -0.52315  -0.47551  -0.43678  -0.37016
  Beta  occ. eigenvalues --   -0.35591  -0.33539  -0.31759
  Beta virt. eigenvalues --   -0.07077   0.08116   0.08508   0.10012   0.10669
  Beta virt. eigenvalues --    0.12601   0.14385   0.15059   0.15564   0.17146
  Beta virt. eigenvalues --    0.21039   0.23158   0.25989   0.28831   0.30688

 Mulliken charges and spin densities:
               1          2
     1  C   -0.316938   0.524278
     2  H    0.140808  -0.015050
     3  H    0.133357  -0.015148
     4  C   -0.064171  -0.007248
     5  H    0.076991   0.003504
     6  H    0.095988  -0.000793
     7  H    0.097898   0.001824
     8  O   -0.170329   0.058748
     9  O   -0.220600   0.412357
    10  H    0.217867  -0.084888
    11  C   -0.003718  -0.234218
    12  C   -0.160005   0.368546
    13  H    0.172851  -0.011910
 Sum of Mulliken charges =  -0.00000   1.00000

 Dipole moment (field-independent basis, Debye):
    X=              1.0288    Y=              1.0697    Z=              1.6529  Tot=              2.2215
 Quadrupole moment (field-independent basis, Debye-Ang):
   XX=            -36.4988   YY=            -31.0250   ZZ=            -37.6854
   XY=             -2.8725   XZ=             -2.6206   YZ=             -1.2462

  Exact polarizability:  95.752   2.928  74.207   1.039  -4.324  43.156
 Approx polarizability:  79.747   8.627  92.840   2.928  -7.628  51.909

 ******    1 imaginary frequencies (negative Signs) ******

                      1                      2                      3
                      A                      A                      A
 Frequencies --  -1953.8021                58.1705                75.7195
 Red. masses --      1.1209                 3.3490                 4.5093
 Frc consts  --      2.5210                 0.0067                 0.0152
 IR Inten    --   2277.2364                 2.7891                 0.0181

                      4                      5                      6
                      A                      A                      A
 Frequencies --    121.3054               185.7818               268.9214
 Red. masses --      2.8739                 1.3523                 2.9354
 Frc consts  --      0.0249                 0.0275                 0.1251
 IR Inten    --      5.0249                 1.4474                 0.5063

                      7                      8                      9
                      A                      A                      A
 Frequencies --    335.9577               414.8043               462.4387
 Red. masses --      2.5408                 1.2379                 5.1660
 Frc consts  --      0.1690                 0.1255                 0.6509
 IR Inten    --      5.6606                 1.6937                 3.9058

                     10                     11                     12
                      A                      A                      A
 Frequencies --    480.4884               553.6399               623.2469
 Red. masses --      3.4503                 3.3529                 1.2627
 Frc consts  --      0.4693                 0.6055                 0.2890
 IR Inten    --      5.9673                 3.3737                38.5199

                     13                     14                     15
                      A                      A                      A
 Frequencies --    645.5962               928.8339              1006.3662
 Red. masses --      1.2285                 4.7870                 2.3575
 Frc consts  --      0.3017                 2.4333                 1.4068
 IR Inten    --     46.4120                21.8302                15.2674

                     16                     17                     18
                      A                      A                      A
 Frequencies --   1048.4445              1049.8683              1100.6026
 Red. masses --      6.1107                 1.3647                 1.9954
 Frc consts  --      3.9576                 0.8862                 1.4241
 IR Inten    --     59.7084                 3.1502                 4.5065

                     19                     20                     21
                      A                      A                      A
 Frequencies --   1135.2829              1173.9659              1215.3990
 Red. masses --      1.0474                 1.2690                 1.5631
 Frc consts  --      0.7954                 1.0304                 1.3604
 IR Inten    --     15.5934                 2.7168                 3.1808

                     22                     23                     24
                      A                      A                      A
 Frequencies --   1457.0844              1457.4988              1474.5842
 Red. masses --      1.1162                 1.0834                 1.1382
 Frc consts  --      1.3963                 1.3559                 1.4581
 IR Inten    --      9.9993                 2.8754                 9.8987

                     25                     26                     27
                      A                      A                      A
 Frequencies --   1484.9795              1511.2397              2157.1679
 Red. masses --      1.0605                 1.0485                 6.1498
 Frc consts  --      1.3778                 1.4109                16.8609
 IR Inten    --      6.5917                 8.2724                10.7029

                     28                     29                     30
                      A                      A                      A
 Frequencies --   3048.0431              3111.9143              3128.9029
 Red. masses --      1.0282                 1.0526                 1.1068
 Frc consts  --      5.6281                 6.0060                 6.3842
 IR Inten    --     37.9830                 4.7028                31.4898

                     31                     32                     33
                      A                      A                      A
 Frequencies --   3153.4734              3191.0360              3488.4885
 Red. masses --      1.1052                 1.1117                 1.1514
 Frc consts  --      6.4754                 6.6694                 8.2559
 IR Inten    --     11.9179                 0.9341                57.9979

 - Thermochemistry -
 -------------------
 Temperature   298.150 Kelvin.  Pressure   1.00000 Atm.
 Atom     1 has atomic number  6 and mass  12.00000

 Molecular mass:    87.04460 amu.
 Principal axes and moments of inertia in atomic units:
                           1         2         3
     Eigenvalues --   368.99536 802.339471045.36772
           X            0.99857  -0.04958  -0.02007
           Y            0.04950   0.99876  -0.00490
           Z            0.02029   0.00390   0.99979
 This molecule is an asymmetric top.
 Rotational symmetry number  1.
 Rotational temperatures (Kelvin)      0.23473     0.10795     0.08285
 Rotational constants (GHZ):           4.89096     2.24935     1.72642
    1 imaginary frequencies ignored.
 Zero-point vibrational energy     248519.7 (Joules/Mol)
                                   59.39763 (Kcal/Mol)
 Warning -- explicit consideration of  10 degrees of freedom as
           vibrations may cause significant error
 Vibrational temperatures:     83.69   108.94   174.53   267.30   386.92
          (Kelvin)            483.37   596.81   665.35   691.32   796.56
                              896.71   928.87  1336.38  1447.94  1508.48
                             1510.53  1583.52  1633.42  1689.08  1748.69
                             2096.42  2097.02  2121.60  2136.55  2174.34
                             3103.68  4385.45  4477.35  4501.79  4537.14
                             4591.19  5019.16

 Zero-point correction=                           0.094656 (Hartree/Particle)
 Thermal correction to Energy=                    0.102717
 Thermal correction to Enthalpy=                  0.103661
 Thermal correction to Gibbs Free Energy=         0.061398
 Sum of electronic and zero-point Energies=           -306.623438
 Sum of electronic and thermal Energies=              -306.615377
 Sum of electronic and thermal Enthalpies=            -306.614433
 Sum of electronic and thermal Free Energies=         -306.656696

                     E (Thermal)             CV                S
                      KCal/Mol        Cal/Mol-Kelvin    Cal/Mol-Kelvin
 Total                   64.456             26.989             88.950
 Electronic               0.000              0.000              1.377
 Translational            0.889              2.981             39.304
 Rotational               0.889              2.981             27.228
 Vibrational             62.678             21.027             21.040
 Vibration     1          0.596              1.974              4.518
 Vibration     2          0.599              1.965              3.999
 Vibration     3          0.609              1.931              3.079
 Vibration     4          0.632              1.859              2.270
 Vibration     5          0.673              1.730              1.603
 Vibration     6          0.717              1.604              1.231
 Vibration     7          0.778              1.438              0.910
 Vibration     8          0.820              1.333              0.759
 Vibration     9          0.837              1.293              0.709
 Vibration    10          0.909              1.132              0.537

                           ! Non-Optimized Parameters !

 1\1\GINC-N105\Freq\UB2PLYPD3-FC\CC-pVTZ\C4H7O2(2)\ROOT\11-Jun-2019\0\\
 #N Geom=AllCheck Guess=TCheck SCRF=Check GenChk UB2PLYPD3(FC)/CC-pVTZ
 Freq\\Title Card Required\\0,2\C,1.3271427652,1.2169169149,-0.32581944
 14\H,1.7128357076,1.9841756394,0.3372340029\H,1.3390807569,1.494819587
 1,-1.3742509941\C,-1.7020627532,-0.9196570757,-0.5689158644\H,-0.91767
 784,-0.8948157415,-1.3244652318\H,-1.8669409286,-1.942436237,-0.238371
 1685\H,-2.6218061639,-0.4934625481,-0.964558879\O,-1.29323095,-0.21166
 05822,0.5986777101\O,-1.1363668549,1.1300520081,0.2599036936\H,0.00782

 Normal termination of Gaussian 16 at Tue Jun 11 11:08:30 2019.
